Title="TOUGHREACT V3.30-OMP flowvector.tec: Liq & Gas Fluxes (kg/s/m^2), Pore Velocities (m/s), & Heat Fluxes (J/s/m2)"                                                                                                                                                                                                                                                                                                                                                                                                                                                                                                                                                                                                                                                                                                         
Variables= "X(m)"     "Y(m)"      "Z(m)"     "FluxLiq"   "FluxLiq_X"   "FluxLiq_Y"   "FluxLiq_Z"   "PorVelLiq"  "PorVelLiqX"  "PorVelLiqY"  "PorVelLiqZ"     "FluxGas"   "FluxGas_X"   "FluxGas_Y"   "FluxGas_Z"   "PorVelGas"  "PorVelGasX"  "PorVelGasY"  "PorVelGasZ"    "HeatFlux"  "HeatFlux_X"  "HeatFlux_Y"  "HeatFlux_Z"                                                                                                                                                                                                                                                                                                                                                                                                                                                                                                
Zone T= "5.00000000E-02 sec" I=     9 J=    10 K=    23 F=Point
  1.250000E+02  1.250000E+02 -5.425000E+03  4.795374E-07  0.000000E+00  0.000000E+00  4.795374E-07  2.728473E-09  0.000000E+00  0.000000E+00  2.728473E-09  0.000000E+00  0.000000E+00  0.000000E+00  0.000000E+00  0.000000E+00  0.000000E+00  0.000000E+00  0.000000E+00  5.776962E-01  0.000000E+00  0.000000E+00  5.776962E-01                                                                                                                                                                                                                                                                                                                                                                                                                                                                                              
  3.750000E+02  1.250000E+02 -5.425000E+03  4.795374E-07  0.000000E+00  0.000000E+00  4.795374E-07  2.728473E-09  0.000000E+00  0.000000E+00  2.728473E-09  0.000000E+00  0.000000E+00  0.000000E+00  0.000000E+00  0.000000E+00  0.000000E+00  0.000000E+00  0.000000E+00  5.776962E-01  0.000000E+00  0.000000E+00  5.776962E-01                                                                                                                                                                                                                                                                                                                                                                                                                                                                                              
  6.250000E+02  1.250000E+02 -5.425000E+03  4.795374E-07  0.000000E+00  0.000000E+00  4.795374E-07  2.728473E-09  0.000000E+00  0.000000E+00  2.728473E-09  0.000000E+00  0.000000E+00  0.000000E+00  0.000000E+00  0.000000E+00  0.000000E+00  0.000000E+00  0.000000E+00  5.776962E-01  0.000000E+00  0.000000E+00  5.776962E-01                                                                                                                                                                                                                                                                                                                                                                                                                                                                                              
  7.600000E+02  1.250000E+02 -5.425000E+03  4.795374E-07  0.000000E+00  0.000000E+00  4.795374E-07  2.728473E-09  0.000000E+00  0.000000E+00  2.728473E-09  0.000000E+00  0.000000E+00  0.000000E+00  0.000000E+00  0.000000E+00  0.000000E+00  0.000000E+00  0.000000E+00  5.776962E-01  0.000000E+00  0.000000E+00  5.776962E-01                                                                                                                                                                                                                                                                                                                                                                                                                                                                                              
  7.800000E+02  1.250000E+02 -5.425000E+03  4.795374E-07  0.000000E+00  0.000000E+00  4.795374E-07  2.728473E-09  0.000000E+00  0.000000E+00  2.728473E-09  0.000000E+00  0.000000E+00  0.000000E+00  0.000000E+00  0.000000E+00  0.000000E+00  0.000000E+00  0.000000E+00  5.776962E-01  0.000000E+00  0.000000E+00  5.776962E-01                                                                                                                                                                                                                                                                                                                                                                                                                                                                                              
  8.000000E+02  1.250000E+02 -5.425000E+03  4.795374E-07  0.000000E+00  0.000000E+00  4.795374E-07  2.728473E-09  0.000000E+00  0.000000E+00  2.728473E-09  0.000000E+00  0.000000E+00  0.000000E+00  0.000000E+00  0.000000E+00  0.000000E+00  0.000000E+00  0.000000E+00  5.776962E-01  0.000000E+00  0.000000E+00  5.776962E-01                                                                                                                                                                                                                                                                                                                                                                                                                                                                                              
  9.350000E+02  1.250000E+02 -5.425000E+03  4.795374E-07  0.000000E+00  0.000000E+00  4.795374E-07  2.728473E-09  0.000000E+00  0.000000E+00  2.728473E-09  0.000000E+00  0.000000E+00  0.000000E+00  0.000000E+00  0.000000E+00  0.000000E+00  0.000000E+00  0.000000E+00  5.776962E-01  0.000000E+00  0.000000E+00  5.776962E-01                                                                                                                                                                                                                                                                                                                                                                                                                                                                                              
  1.185000E+03  1.250000E+02 -5.425000E+03  4.795374E-07  0.000000E+00  0.000000E+00  4.795374E-07  2.728473E-09  0.000000E+00  0.000000E+00  2.728473E-09  0.000000E+00  0.000000E+00  0.000000E+00  0.000000E+00  0.000000E+00  0.000000E+00  0.000000E+00  0.000000E+00  5.776962E-01  0.000000E+00  0.000000E+00  5.776962E-01                                                                                                                                                                                                                                                                                                                                                                                                                                                                                              
  1.435000E+03  1.250000E+02 -5.425000E+03  4.795374E-07  0.000000E+00  0.000000E+00  4.795374E-07  2.728473E-09  0.000000E+00  0.000000E+00  2.728473E-09  0.000000E+00  0.000000E+00  0.000000E+00  0.000000E+00  0.000000E+00  0.000000E+00  0.000000E+00  0.000000E+00  5.776962E-01  0.000000E+00  0.000000E+00  5.776962E-01                                                                                                                                                                                                                                                                                                                                                                                                                                                                                              
  1.250000E+02  1.250000E+02 -5.225000E+03  9.241058E-07  0.000000E+00  0.000000E+00  9.241058E-07  5.235308E-09  0.000000E+00  0.000000E+00  5.235308E-09  0.000000E+00  0.000000E+00  0.000000E+00  0.000000E+00  0.000000E+00  0.000000E+00  0.000000E+00  0.000000E+00  1.104783E+00  0.000000E+00  0.000000E+00  1.104783E+00                                                                                                                                                                                                                                                                                                                                                                                                                                                                                              
  3.750000E+02  1.250000E+02 -5.225000E+03  9.241058E-07  0.000000E+00  0.000000E+00  9.241058E-07  5.235308E-09  0.000000E+00  0.000000E+00  5.235308E-09  0.000000E+00  0.000000E+00  0.000000E+00  0.000000E+00  0.000000E+00  0.000000E+00  0.000000E+00  0.000000E+00  1.104783E+00  0.000000E+00  0.000000E+00  1.104783E+00                                                                                                                                                                                                                                                                                                                                                                                                                                                                                              
  6.250000E+02  1.250000E+02 -5.225000E+03  9.241058E-07  0.000000E+00  0.000000E+00  9.241058E-07  5.235308E-09  0.000000E+00  0.000000E+00  5.235308E-09  0.000000E+00  0.000000E+00  0.000000E+00  0.000000E+00  0.000000E+00  0.000000E+00  0.000000E+00  0.000000E+00  1.104783E+00  0.000000E+00  0.000000E+00  1.104783E+00                                                                                                                                                                                                                                                                                                                                                                                                                                                                                              
  7.600000E+02  1.250000E+02 -5.225000E+03  9.241058E-07  0.000000E+00  0.000000E+00  9.241058E-07  5.235308E-09  0.000000E+00  0.000000E+00  5.235308E-09  0.000000E+00  0.000000E+00  0.000000E+00  0.000000E+00  0.000000E+00  0.000000E+00  0.000000E+00  0.000000E+00  1.104783E+00  0.000000E+00  0.000000E+00  1.104783E+00                                                                                                                                                                                                                                                                                                                                                                                                                                                                                              
  7.800000E+02  1.250000E+02 -5.225000E+03  9.241058E-07  0.000000E+00  0.000000E+00  9.241058E-07  5.235308E-09  0.000000E+00  0.000000E+00  5.235308E-09  0.000000E+00  0.000000E+00  0.000000E+00  0.000000E+00  0.000000E+00  0.000000E+00  0.000000E+00  0.000000E+00  1.104783E+00  0.000000E+00  0.000000E+00  1.104783E+00                                                                                                                                                                                                                                                                                                                                                                                                                                                                                              
  8.000000E+02  1.250000E+02 -5.225000E+03  9.241058E-07  0.000000E+00  0.000000E+00  9.241058E-07  5.235308E-09  0.000000E+00  0.000000E+00  5.235308E-09  0.000000E+00  0.000000E+00  0.000000E+00  0.000000E+00  0.000000E+00  0.000000E+00  0.000000E+00  0.000000E+00  1.104783E+00  0.000000E+00  0.000000E+00  1.104783E+00                                                                                                                                                                                                                                                                                                                                                                                                                                                                                              
  9.350000E+02  1.250000E+02 -5.225000E+03  9.241058E-07  0.000000E+00  0.000000E+00  9.241058E-07  5.235308E-09  0.000000E+00  0.000000E+00  5.235308E-09  0.000000E+00  0.000000E+00  0.000000E+00  0.000000E+00  0.000000E+00  0.000000E+00  0.000000E+00  0.000000E+00  1.104783E+00  0.000000E+00  0.000000E+00  1.104783E+00                                                                                                                                                                                                                                                                                                                                                                                                                                                                                              
  1.185000E+03  1.250000E+02 -5.225000E+03  9.241058E-07  0.000000E+00  0.000000E+00  9.241058E-07  5.235308E-09  0.000000E+00  0.000000E+00  5.235308E-09  0.000000E+00  0.000000E+00  0.000000E+00  0.000000E+00  0.000000E+00  0.000000E+00  0.000000E+00  0.000000E+00  1.104783E+00  0.000000E+00  0.000000E+00  1.104783E+00                                                                                                                                                                                                                                                                                                                                                                                                                                                                                              
  1.435000E+03  1.250000E+02 -5.225000E+03  9.241058E-07  0.000000E+00  0.000000E+00  9.241058E-07  5.235308E-09  0.000000E+00  0.000000E+00  5.235308E-09  0.000000E+00  0.000000E+00  0.000000E+00  0.000000E+00  0.000000E+00  0.000000E+00  0.000000E+00  0.000000E+00  1.104783E+00  0.000000E+00  0.000000E+00  1.104783E+00                                                                                                                                                                                                                                                                                                                                                                                                                                                                                              
  1.250000E+02  1.250000E+02 -4.975000E+03  8.494998E-07  0.000000E+00  0.000000E+00  8.494998E-07  4.768143E-09  0.000000E+00  0.000000E+00  4.768143E-09  0.000000E+00  0.000000E+00  0.000000E+00  0.000000E+00  0.000000E+00  0.000000E+00  0.000000E+00  0.000000E+00  9.981776E-01  0.000000E+00  0.000000E+00  9.981776E-01                                                                                                                                                                                                                                                                                                                                                                                                                                                                                              
  3.750000E+02  1.250000E+02 -4.975000E+03  8.494998E-07  0.000000E+00  0.000000E+00  8.494998E-07  4.768143E-09  0.000000E+00  0.000000E+00  4.768143E-09  0.000000E+00  0.000000E+00  0.000000E+00  0.000000E+00  0.000000E+00  0.000000E+00  0.000000E+00  0.000000E+00  9.981776E-01  0.000000E+00  0.000000E+00  9.981776E-01                                                                                                                                                                                                                                                                                                                                                                                                                                                                                              
  6.250000E+02  1.250000E+02 -4.975000E+03  8.494998E-07  0.000000E+00  0.000000E+00  8.494998E-07  4.768143E-09  0.000000E+00  0.000000E+00  4.768143E-09  0.000000E+00  0.000000E+00  0.000000E+00  0.000000E+00  0.000000E+00  0.000000E+00  0.000000E+00  0.000000E+00  9.981776E-01  0.000000E+00  0.000000E+00  9.981776E-01                                                                                                                                                                                                                                                                                                                                                                                                                                                                                              
  7.600000E+02  1.250000E+02 -4.975000E+03  8.494998E-07  0.000000E+00  0.000000E+00  8.494998E-07  4.768143E-09  0.000000E+00  0.000000E+00  4.768143E-09  0.000000E+00  0.000000E+00  0.000000E+00  0.000000E+00  0.000000E+00  0.000000E+00  0.000000E+00  0.000000E+00  9.981776E-01  0.000000E+00  0.000000E+00  9.981776E-01                                                                                                                                                                                                                                                                                                                                                                                                                                                                                              
  7.800000E+02  1.250000E+02 -4.975000E+03  8.494998E-07  0.000000E+00  0.000000E+00  8.494998E-07  4.768143E-09  0.000000E+00  0.000000E+00  4.768143E-09  0.000000E+00  0.000000E+00  0.000000E+00  0.000000E+00  0.000000E+00  0.000000E+00  0.000000E+00  0.000000E+00  9.981776E-01  0.000000E+00  0.000000E+00  9.981776E-01                                                                                                                                                                                                                                                                                                                                                                                                                                                                                              
  8.000000E+02  1.250000E+02 -4.975000E+03  8.494998E-07  0.000000E+00  0.000000E+00  8.494998E-07  4.768143E-09  0.000000E+00  0.000000E+00  4.768143E-09  0.000000E+00  0.000000E+00  0.000000E+00  0.000000E+00  0.000000E+00  0.000000E+00  0.000000E+00  0.000000E+00  9.981776E-01  0.000000E+00  0.000000E+00  9.981776E-01                                                                                                                                                                                                                                                                                                                                                                                                                                                                                              
  9.350000E+02  1.250000E+02 -4.975000E+03  8.494998E-07  0.000000E+00  0.000000E+00  8.494998E-07  4.768143E-09  0.000000E+00  0.000000E+00  4.768143E-09  0.000000E+00  0.000000E+00  0.000000E+00  0.000000E+00  0.000000E+00  0.000000E+00  0.000000E+00  0.000000E+00  9.981776E-01  0.000000E+00  0.000000E+00  9.981776E-01                                                                                                                                                                                                                                                                                                                                                                                                                                                                                              
  1.185000E+03  1.250000E+02 -4.975000E+03  8.494998E-07  0.000000E+00  0.000000E+00  8.494998E-07  4.768143E-09  0.000000E+00  0.000000E+00  4.768143E-09  0.000000E+00  0.000000E+00  0.000000E+00  0.000000E+00  0.000000E+00  0.000000E+00  0.000000E+00  0.000000E+00  9.981776E-01  0.000000E+00  0.000000E+00  9.981776E-01                                                                                                                                                                                                                                                                                                                                                                                                                                                                                              
  1.435000E+03  1.250000E+02 -4.975000E+03  8.494998E-07  0.000000E+00  0.000000E+00  8.494998E-07  4.768143E-09  0.000000E+00  0.000000E+00  4.768143E-09  0.000000E+00  0.000000E+00  0.000000E+00  0.000000E+00  0.000000E+00  0.000000E+00  0.000000E+00  0.000000E+00  9.981776E-01  0.000000E+00  0.000000E+00  9.981776E-01                                                                                                                                                                                                                                                                                                                                                                                                                                                                                              
  1.250000E+02  1.250000E+02 -4.725000E+03  9.226976E-07  0.000000E+00  0.000000E+00  9.226976E-07  5.129732E-09  0.000000E+00  0.000000E+00  5.129732E-09  0.000000E+00  0.000000E+00  0.000000E+00  0.000000E+00  0.000000E+00  0.000000E+00  0.000000E+00  0.000000E+00  1.022737E+00  0.000000E+00  0.000000E+00  1.022737E+00                                                                                                                                                                                                                                                                                                                                                                                                                                                                                              
  3.750000E+02  1.250000E+02 -4.725000E+03  9.226976E-07  0.000000E+00  0.000000E+00  9.226976E-07  5.129732E-09  0.000000E+00  0.000000E+00  5.129732E-09  0.000000E+00  0.000000E+00  0.000000E+00  0.000000E+00  0.000000E+00  0.000000E+00  0.000000E+00  0.000000E+00  1.022737E+00  0.000000E+00  0.000000E+00  1.022737E+00                                                                                                                                                                                                                                                                                                                                                                                                                                                                                              
  6.250000E+02  1.250000E+02 -4.725000E+03  9.226976E-07  0.000000E+00  0.000000E+00  9.226976E-07  5.129732E-09  0.000000E+00  0.000000E+00  5.129732E-09  0.000000E+00  0.000000E+00  0.000000E+00  0.000000E+00  0.000000E+00  0.000000E+00  0.000000E+00  0.000000E+00  1.022737E+00  0.000000E+00  0.000000E+00  1.022737E+00                                                                                                                                                                                                                                                                                                                                                                                                                                                                                              
  7.600000E+02  1.250000E+02 -4.725000E+03  9.226978E-07  0.000000E+00  0.000000E+00  9.226978E-07  5.129733E-09  0.000000E+00  0.000000E+00  5.129733E-09  0.000000E+00  0.000000E+00  0.000000E+00  0.000000E+00  0.000000E+00  0.000000E+00  0.000000E+00  0.000000E+00  1.022737E+00  0.000000E+00  0.000000E+00  1.022737E+00                                                                                                                                                                                                                                                                                                                                                                                                                                                                                              
  7.800000E+02  1.250000E+02 -4.725000E+03  9.226978E-07  0.000000E+00  0.000000E+00  9.226978E-07  5.129733E-09  0.000000E+00  0.000000E+00  5.129733E-09  0.000000E+00  0.000000E+00  0.000000E+00  0.000000E+00  0.000000E+00  0.000000E+00  0.000000E+00  0.000000E+00  1.022737E+00  0.000000E+00  0.000000E+00  1.022737E+00                                                                                                                                                                                                                                                                                                                                                                                                                                                                                              
  8.000000E+02  1.250000E+02 -4.725000E+03  9.226978E-07  0.000000E+00  0.000000E+00  9.226978E-07  5.129733E-09  0.000000E+00  0.000000E+00  5.129733E-09  0.000000E+00  0.000000E+00  0.000000E+00  0.000000E+00  0.000000E+00  0.000000E+00  0.000000E+00  0.000000E+00  1.022737E+00  0.000000E+00  0.000000E+00  1.022737E+00                                                                                                                                                                                                                                                                                                                                                                                                                                                                                              
  9.350000E+02  1.250000E+02 -4.725000E+03  9.226976E-07  0.000000E+00  0.000000E+00  9.226976E-07  5.129732E-09  0.000000E+00  0.000000E+00  5.129732E-09  0.000000E+00  0.000000E+00  0.000000E+00  0.000000E+00  0.000000E+00  0.000000E+00  0.000000E+00  0.000000E+00  1.022737E+00  0.000000E+00  0.000000E+00  1.022737E+00                                                                                                                                                                                                                                                                                                                                                                                                                                                                                              
  1.185000E+03  1.250000E+02 -4.725000E+03  9.226976E-07  0.000000E+00  0.000000E+00  9.226976E-07  5.129732E-09  0.000000E+00  0.000000E+00  5.129732E-09  0.000000E+00  0.000000E+00  0.000000E+00  0.000000E+00  0.000000E+00  0.000000E+00  0.000000E+00  0.000000E+00  1.022737E+00  0.000000E+00  0.000000E+00  1.022737E+00                                                                                                                                                                                                                                                                                                                                                                                                                                                                                              