Title="TOUGHREACT V3.30-OMP flowvector.tec: Liq & Gas Fluxes (kg/s/m^2), Pore Velocities (m/s), & Heat Fluxes (J/s/m2)"                                                                                                                                                                                                                                                                                                                                                                                                                                                                                                                                                                                                                                                                                                         
Variables= "X(m)"     "Y(m)"      "Z(m)"     "FluxLiq"   "FluxLiq_X"   "FluxLiq_Y"   "FluxLiq_Z"   "PorVelLiq"  "PorVelLiqX"  "PorVelLiqY"  "PorVelLiqZ"     "FluxGas"   "FluxGas_X"   "FluxGas_Y"   "FluxGas_Z"   "PorVelGas"  "PorVelGasX"  "PorVelGasY"  "PorVelGasZ"    "HeatFlux"  "HeatFlux_X"  "HeatFlux_Y"  "HeatFlux_Z"                                                                                                                                                                                                                                                                                                                                                                                                                                                                                                
Zone T= "1.00000000E+10 sec" I=     9 J=    10 K=    23 F=Point
  1.250000E+02  1.250000E+02 -5.425000E+03  4.392127E-09  1.437818E-12  2.220199E-14 -4.392126E-09  2.514406E-11  8.257771E-15  1.275119E-16 -2.514406E-11  0.000000E+00  0.000000E+00  0.000000E+00  0.000000E+00  0.000000E+00  0.000000E+00  0.000000E+00  0.000000E+00  5.474732E-02  1.367936E-06  7.618434E-09  5.474732E-02                                                                                                                                                                                                                                                                                                                                                                                                                                                                                              
  3.750000E+02  1.250000E+02 -5.425000E+03  4.391497E-09  3.251473E-12  1.964185E-15 -4.391496E-09  2.514046E-11  1.867407E-14  1.128083E-17 -2.514045E-11  0.000000E+00  0.000000E+00  0.000000E+00  0.000000E+00  0.000000E+00  0.000000E+00  0.000000E+00  0.000000E+00  5.474782E-02  3.060671E-06  2.045931E-08  5.474782E-02                                                                                                                                                                                                                                                                                                                                                                                                                                                                                              
  6.250000E+02  1.250000E+02 -5.425000E+03  4.390264E-09  2.000585E-12 -5.170847E-15 -4.390264E-09  2.513340E-11  1.148989E-14 -2.969754E-17 -2.513340E-11  0.000000E+00  0.000000E+00  0.000000E+00  0.000000E+00  0.000000E+00  0.000000E+00  0.000000E+00  0.000000E+00  5.474842E-02  1.871376E-06  6.444030E-09  5.474842E-02                                                                                                                                                                                                                                                                                                                                                                                                                                                                                              
  7.600000E+02  1.250000E+02 -5.425000E+03  4.390173E-09  2.410098E-13 -3.686717E-16 -4.390173E-09  2.513288E-11  1.384183E-15 -2.117379E-18 -2.513288E-11  0.000000E+00  0.000000E+00  0.000000E+00  0.000000E+00  0.000000E+00  0.000000E+00  0.000000E+00  0.000000E+00  5.474842E-02  2.490505E-07  2.337297E-09  5.474842E-02                                                                                                                                                                                                                                                                                                                                                                                                                                                                                              
  7.800000E+02  1.250000E+02 -5.425000E+03  4.390168E-09 -2.975112E-14  4.287844E-16 -4.390168E-09  2.513285E-11 -1.708686E-16  2.462622E-18 -2.513285E-11  0.000000E+00  0.000000E+00  0.000000E+00  0.000000E+00  0.000000E+00  0.000000E+00  0.000000E+00  0.000000E+00  5.474842E-02 -1.232403E-08  2.124890E-09  5.474842E-02                                                                                                                                                                                                                                                                                                                                                                                                                                                                                              
  8.000000E+02  1.250000E+02 -5.425000E+03  4.390171E-09 -3.079821E-13  4.021891E-16 -4.390171E-09  2.513287E-11 -1.768823E-15  2.309878E-18 -2.513287E-11  0.000000E+00  0.000000E+00  0.000000E+00  0.000000E+00  0.000000E+00  0.000000E+00  0.000000E+00  0.000000E+00  5.474842E-02 -2.789656E-07  3.624326E-09  5.474842E-02                                                                                                                                                                                                                                                                                                                                                                                                                                                                                              
  9.350000E+02  1.250000E+02 -5.425000E+03  4.390244E-09 -2.027698E-12  6.257435E-15 -4.390244E-09  2.513329E-11 -1.164560E-14  3.593810E-17 -2.513329E-11  0.000000E+00  0.000000E+00  0.000000E+00  0.000000E+00  0.000000E+00  0.000000E+00  0.000000E+00  0.000000E+00  5.474842E-02 -1.891007E-06  6.946350E-09  5.474842E-02                                                                                                                                                                                                                                                                                                                                                                                                                                                                                              
  1.185000E+03  1.250000E+02 -5.425000E+03  4.391494E-09 -3.235087E-12  1.112000E-14 -4.391493E-09  2.514044E-11 -1.857996E-14  6.386509E-17 -2.514044E-11  0.000000E+00  0.000000E+00  0.000000E+00  0.000000E+00  0.000000E+00  0.000000E+00  0.000000E+00  0.000000E+00  5.474782E-02 -3.068653E-06  2.137684E-08  5.474782E-02                                                                                                                                                                                                                                                                                                                                                                                                                                                                                              
  1.435000E+03  1.250000E+02 -5.425000E+03  4.392125E-09 -1.431541E-12  3.029460E-14 -4.392125E-09  2.514405E-11 -8.221721E-15  1.739899E-16 -2.514405E-11  0.000000E+00  0.000000E+00  0.000000E+00  0.000000E+00  0.000000E+00  0.000000E+00  0.000000E+00  0.000000E+00  5.474734E-02 -1.373879E-06  1.262753E-08  5.474734E-02                                                                                                                                                                                                                                                                                                                                                                                                                                                                                              
  1.250000E+02  1.250000E+02 -5.225000E+03  1.102171E-08  1.902349E-12  8.777785E-15 -1.102171E-08  6.279334E-11  1.086668E-14  5.014083E-17 -6.279334E-11  0.000000E+00  0.000000E+00  0.000000E+00  0.000000E+00  0.000000E+00  0.000000E+00  0.000000E+00  0.000000E+00  1.422524E-01  1.694281E-06  4.155753E-09  1.422524E-01                                                                                                                                                                                                                                                                                                                                                                                                                                                                                              
  3.750000E+02  1.250000E+02 -5.225000E+03  1.101918E-08  4.596847E-12  4.171599E-15 -1.101918E-08  6.277898E-11  2.625830E-14  2.382919E-17 -6.277897E-11  0.000000E+00  0.000000E+00  0.000000E+00  0.000000E+00  0.000000E+00  0.000000E+00  0.000000E+00  0.000000E+00  1.422531E-01  3.730243E-06  1.559861E-09  1.422531E-01                                                                                                                                                                                                                                                                                                                                                                                                                                                                                              
  6.250000E+02  1.250000E+02 -5.225000E+03  1.101310E-08  2.996272E-12  1.031739E-14 -1.101310E-08  6.274439E-11  1.711543E-14  5.893545E-17 -6.274438E-11  0.000000E+00  0.000000E+00  0.000000E+00  0.000000E+00  0.000000E+00  0.000000E+00  0.000000E+00  0.000000E+00  1.422518E-01  2.192333E-06  9.041692E-09  1.422518E-01                                                                                                                                                                                                                                                                                                                                                                                                                                                                                              
  7.600000E+02  1.250000E+02 -5.225000E+03  1.101282E-08  4.008926E-13  6.284573E-15 -1.101282E-08  6.274278E-11  2.289996E-15  3.589901E-17 -6.274278E-11  0.000000E+00  0.000000E+00  0.000000E+00  0.000000E+00  0.000000E+00  0.000000E+00  0.000000E+00  0.000000E+00  1.422515E-01  2.103864E-07  7.945022E-09  1.422515E-01                                                                                                                                                                                                                                                                                                                                                                                                                                                                                              
  7.800000E+02  1.250000E+02 -5.225000E+03  1.101280E-08 -9.445222E-15  5.820090E-15 -1.101280E-08  6.274270E-11 -5.395341E-17  3.324577E-17 -6.274270E-11  0.000000E+00  0.000000E+00  0.000000E+00  0.000000E+00  0.000000E+00  0.000000E+00  0.000000E+00  0.000000E+00  1.422514E-01 -4.489219E-09  7.182365E-09  1.422514E-01                                                                                                                                                                                                                                                                                                                                                                                                                                                                                              
  8.000000E+02  1.250000E+02 -5.225000E+03  1.101282E-08 -4.179659E-13  5.843702E-15 -1.101282E-08  6.274277E-11 -2.387523E-15  3.338065E-17 -6.274277E-11  0.000000E+00  0.000000E+00  0.000000E+00  0.000000E+00  0.000000E+00  0.000000E+00  0.000000E+00  0.000000E+00  1.422515E-01 -2.245565E-07  7.664675E-09  1.422515E-01                                                                                                                                                                                                                                                                                                                                                                                                                                                                                              
  9.350000E+02  1.250000E+02 -5.225000E+03  1.101308E-08 -3.009196E-12  6.446489E-15 -1.101308E-08  6.274426E-11 -1.718926E-14  3.682391E-17 -6.274426E-11  0.000000E+00  0.000000E+00  0.000000E+00  0.000000E+00  0.000000E+00  0.000000E+00  0.000000E+00  0.000000E+00  1.422518E-01 -2.208646E-06  1.121146E-08  1.422518E-01                                                                                                                                                                                                                                                                                                                                                                                                                                                                                              
  1.185000E+03  1.250000E+02 -5.225000E+03  1.101918E-08 -4.598851E-12  6.084109E-16 -1.101917E-08  6.277893E-11 -2.626976E-14  3.475391E-18 -6.277893E-11  0.000000E+00  0.000000E+00  0.000000E+00  0.000000E+00  0.000000E+00  0.000000E+00  0.000000E+00  0.000000E+00  1.422531E-01 -3.735414E-06 -6.486783E-10  1.422531E-01                                                                                                                                                                                                                                                                                                                                                                                                                                                                                              
  1.435000E+03  1.250000E+02 -5.225000E+03  1.102170E-08 -1.899058E-12  5.998408E-15 -1.102170E-08  6.279330E-11 -1.084788E-14  3.426436E-17 -6.279330E-11  0.000000E+00  0.000000E+00  0.000000E+00  0.000000E+00  0.000000E+00  0.000000E+00  0.000000E+00  0.000000E+00  1.422524E-01 -1.692821E-06  2.597922E-09  1.422524E-01                                                                                                                                                                                                                                                                                                                                                                                                                                                                                              
  1.250000E+02  1.250000E+02 -4.975000E+03  1.318485E-08  3.483416E-12  3.241601E-16 -1.318485E-08  7.448470E-11  1.968968E-14  1.832284E-18 -7.448470E-11  0.000000E+00  0.000000E+00  0.000000E+00  0.000000E+00  0.000000E+00  0.000000E+00  0.000000E+00  0.000000E+00  1.807076E-01  1.604417E-06 -5.953973E-11  1.807076E-01                                                                                                                                                                                                                                                                                                                                                                                                                                                                                              
  3.750000E+02  1.250000E+02 -4.975000E+03  1.317915E-08  9.804172E-12 -8.078162E-16 -1.317915E-08  7.445262E-11  5.541716E-14 -4.566105E-18 -7.445260E-11  0.000000E+00  0.000000E+00  0.000000E+00  0.000000E+00  0.000000E+00  0.000000E+00  0.000000E+00  0.000000E+00  1.806972E-01  4.746257E-07 -1.124688E-09  1.806972E-01                                                                                                                                                                                                                                                                                                                                                                                                                                                                                              
  6.250000E+02  1.250000E+02 -4.975000E+03  1.315746E-08  6.785249E-12  1.581452E-15 -1.315746E-08  7.433061E-11  3.835299E-14  8.939013E-18 -7.433060E-11  0.000000E+00  0.000000E+00  0.000000E+00  0.000000E+00  0.000000E+00  0.000000E+00  0.000000E+00  0.000000E+00  1.806499E-01 -1.742071E-06  1.728139E-09  1.806499E-01                                                                                                                                                                                                                                                                                                                                                                                                                                                                                              
  7.600000E+02  1.250000E+02 -4.975000E+03  1.315983E-08  6.152562E-13  1.555115E-15 -1.315983E-08  7.434389E-11  3.477680E-15  8.790150E-18 -7.434389E-11  0.000000E+00  0.000000E+00  0.000000E+00  0.000000E+00  0.000000E+00  0.000000E+00  0.000000E+00  0.000000E+00  1.806548E-01 -8.233672E-07  1.850768E-09  1.806548E-01                                                                                                                                                                                                                                                                                                                                                                                                                                                                                              
  7.800000E+02  1.250000E+02 -4.975000E+03  1.315995E-08 -4.830182E-15  1.500738E-15 -1.315995E-08  7.434458E-11 -2.730217E-17  8.482788E-18 -7.434458E-11  0.000000E+00  0.000000E+00  0.000000E+00  0.000000E+00  0.000000E+00  0.000000E+00  0.000000E+00  0.000000E+00  1.806550E-01 -4.430326E-09  1.793052E-09  1.806550E-01                                                                                                                                                                                                                                                                                                                                                                                                                                                                                              
  8.000000E+02  1.250000E+02 -4.975000E+03  1.315983E-08 -6.257708E-13  1.457750E-15 -1.315983E-08  7.434389E-11 -3.537113E-15  8.239799E-18 -7.434389E-11  0.000000E+00  0.000000E+00  0.000000E+00  0.000000E+00  0.000000E+00  0.000000E+00  0.000000E+00  0.000000E+00  1.806548E-01  8.133364E-07  1.719265E-09  1.806548E-01                                                                                                                                                                                                                                                                                                                                                                                                                                                                                              
  9.350000E+02  1.250000E+02 -4.975000E+03  1.315746E-08 -6.792933E-12  1.760109E-15 -1.315746E-08  7.433059E-11 -3.839642E-14  9.948854E-18 -7.433058E-11  0.000000E+00  0.000000E+00  0.000000E+00  0.000000E+00  0.000000E+00  0.000000E+00  0.000000E+00  0.000000E+00  1.806499E-01  1.734353E-06  1.943767E-09  1.806499E-01                                                                                                                                                                                                                                                                                                                                                                                                                                                                                              
  1.185000E+03  1.250000E+02 -4.975000E+03  1.317914E-08 -9.803361E-12  5.520532E-16 -1.317914E-08  7.445257E-11 -5.541258E-14  3.120428E-18 -7.445255E-11  0.000000E+00  0.000000E+00  0.000000E+00  0.000000E+00  0.000000E+00  0.000000E+00  0.000000E+00  0.000000E+00  1.806972E-01 -4.740407E-07  5.672520E-10  1.806972E-01                                                                                                                                                                                                                                                                                                                                                                                                                                                                                              
  1.435000E+03  1.250000E+02 -4.975000E+03  1.318484E-08 -3.480606E-12 -1.334725E-15 -1.318484E-08  7.448466E-11 -1.967380E-14 -7.544406E-18 -7.448466E-11  0.000000E+00  0.000000E+00  0.000000E+00  0.000000E+00  0.000000E+00  0.000000E+00  0.000000E+00  0.000000E+00  1.807076E-01 -1.601715E-06 -1.370444E-09  1.807076E-01                                                                                                                                                                                                                                                                                                                                                                                                                                                                                              
  1.250000E+02  1.250000E+02 -4.725000E+03  1.267527E-08  4.660642E-12  9.734866E-18 -1.267527E-08  7.092318E-11  2.606317E-14  5.443911E-20 -7.092317E-11  0.000000E+00  0.000000E+00  0.000000E+00  0.000000E+00  0.000000E+00  0.000000E+00  0.000000E+00  0.000000E+00  1.877358E-01 -1.151217E-05  6.152356E-10  1.877358E-01                                                                                                                                                                                                                                                                                                                                                                                                                                                                                              
  3.750000E+02  1.250000E+02 -4.725000E+03  1.266264E-08  1.683100E-11 -1.087983E-16 -1.266263E-08  7.085280E-11  9.412234E-14 -6.084205E-19 -7.085274E-11  0.000000E+00  0.000000E+00  0.000000E+00  0.000000E+00  0.000000E+00  0.000000E+00  0.000000E+00  0.000000E+00  1.876476E-01 -6.761846E-05  1.515569E-10  1.876475E-01                                                                                                                                                                                                                                                                                                                                                                                                                                                                                              
  6.250000E+02  1.250000E+02 -4.725000E+03  1.259496E-08  9.558496E-12  1.021458E-16 -1.259496E-08  7.047583E-11  5.345306E-14  5.712228E-19 -7.047581E-11  0.000000E+00  0.000000E+00  0.000000E+00  0.000000E+00  0.000000E+00  0.000000E+00  0.000000E+00  0.000000E+00  1.872972E-01 -4.570927E-05  5.470086E-10  1.872972E-01                                                                                                                                                                                                                                                                                                                                                                                                                                                                                              
  7.600000E+02  1.250000E+02 -4.725000E+03  1.265084E-08 -3.526277E-12  2.369983E-16 -1.265084E-08  7.078668E-11 -1.971974E-14  1.325348E-18 -7.078668E-11  0.000000E+00  0.000000E+00  0.000000E+00  0.000000E+00  0.000000E+00  0.000000E+00  0.000000E+00  0.000000E+00  1.876455E-01  1.403122E-05  7.490629E-10  1.876455E-01                                                                                                                                                                                                                                                                                                                                                                                                                                                                                              
  7.800000E+02  1.250000E+02 -4.725000E+03  1.265349E-08 -1.259861E-15  2.567343E-16 -1.265349E-08  7.080141E-11 -7.045425E-18  1.435716E-18 -7.080141E-11  0.000000E+00  0.000000E+00  0.000000E+00  0.000000E+00  0.000000E+00  0.000000E+00  0.000000E+00  0.000000E+00  1.876620E-01 -1.089390E-09  7.880215E-10  1.876620E-01                                                                                                                                                                                                                                                                                                                                                                                                                                                                                              
  8.000000E+02  1.250000E+02 -4.725000E+03  1.265084E-08  3.523807E-12  2.768830E-16 -1.265084E-08  7.078668E-11  1.970593E-14  1.548392E-18 -7.078668E-11  0.000000E+00  0.000000E+00  0.000000E+00  0.000000E+00  0.000000E+00  0.000000E+00  0.000000E+00  0.000000E+00  1.876455E-01 -1.403341E-05  8.094356E-10  1.876455E-01                                                                                                                                                                                                                                                                                                                                                                                                                                                                                              
  9.350000E+02  1.250000E+02 -4.725000E+03  1.259496E-08 -9.560186E-12  3.695235E-16 -1.259496E-08  7.047581E-11 -5.346251E-14  2.066460E-18 -7.047579E-11  0.000000E+00  0.000000E+00  0.000000E+00  0.000000E+00  0.000000E+00  0.000000E+00  0.000000E+00  0.000000E+00  1.872972E-01  4.570772E-05  8.852087E-10  1.872972E-01                                                                                                                                                                                                                                                                                                                                                                                                                                                                                              
  1.185000E+03  1.250000E+02 -4.725000E+03  1.266263E-08 -1.683087E-11  2.800486E-16 -1.266262E-08  7.085277E-11 -9.412162E-14  1.566084E-18 -7.085271E-11  0.000000E+00  0.000000E+00  0.000000E+00  0.000000E+00  0.000000E+00  0.000000E+00  0.000000E+00  0.000000E+00  1.876476E-01  6.761865E-05  5.361855E-10  1.876476E-01                                                                                                                                                                                                                                                                                                                                                                                                                                                                                              