Title="TOUGHREACT V3.30-OMP flowvector.tec: Liq & Gas Fluxes (kg/s/m^2), Pore Velocities (m/s), & Heat Fluxes (J/s/m2)"                                                                                                                                                                                                                                                                                                                                                                                                                                                                                                                                                                                                                                                                                                         
Variables= "X(m)"     "Y(m)"      "Z(m)"     "FluxLiq"   "FluxLiq_X"   "FluxLiq_Y"   "FluxLiq_Z"   "PorVelLiq"  "PorVelLiqX"  "PorVelLiqY"  "PorVelLiqZ"     "FluxGas"   "FluxGas_X"   "FluxGas_Y"   "FluxGas_Z"   "PorVelGas"  "PorVelGasX"  "PorVelGasY"  "PorVelGasZ"    "HeatFlux"  "HeatFlux_X"  "HeatFlux_Y"  "HeatFlux_Z"                                                                                                                                                                                                                                                                                                                                                                                                                                                                                                
Zone T= "1.00000000E+07 sec" I=     9 J=    10 K=    23 F=Point
  1.250000E+02  1.250000E+02 -5.425000E+03  3.544057E-07 -2.919708E-15  7.424120E-16  3.544057E-07  2.016889E-09 -1.668401E-17  4.242345E-18  2.016889E-09  0.000000E+00  0.000000E+00  0.000000E+00  0.000000E+00  0.000000E+00  0.000000E+00  0.000000E+00  0.000000E+00  4.528898E-01 -2.988063E-09  8.340609E-10  4.528898E-01                                                                                                                                                                                                                                                                                                                                                                                                                                                                                              
  3.750000E+02  1.250000E+02 -5.425000E+03  3.544057E-07 -3.301020E-15 -5.866720E-15  3.544057E-07  2.016889E-09 -1.886293E-17 -3.352405E-17  2.016889E-09  0.000000E+00  0.000000E+00  0.000000E+00  0.000000E+00  0.000000E+00  0.000000E+00  0.000000E+00  0.000000E+00  4.528898E-01 -3.438667E-09 -6.141766E-09  4.528898E-01                                                                                                                                                                                                                                                                                                                                                                                                                                                                                              
  6.250000E+02  1.250000E+02 -5.425000E+03  3.544057E-07  2.197029E-15 -2.486430E-15  3.544057E-07  2.016889E-09  1.255443E-17 -1.420814E-17  2.016889E-09  0.000000E+00  0.000000E+00  0.000000E+00  0.000000E+00  0.000000E+00  0.000000E+00  0.000000E+00  0.000000E+00  4.528898E-01  1.966008E-09 -2.581404E-09  4.528898E-01                                                                                                                                                                                                                                                                                                                                                                                                                                                                                              
  7.600000E+02  1.250000E+02 -5.425000E+03  3.544057E-07  4.605406E-15 -1.156511E-15  3.544057E-07  2.016889E-09  2.631655E-17 -6.608619E-18  2.016889E-09  0.000000E+00  0.000000E+00  0.000000E+00  0.000000E+00  0.000000E+00  0.000000E+00  0.000000E+00  0.000000E+00  4.528898E-01  5.262215E-09 -1.117036E-09  4.528898E-01                                                                                                                                                                                                                                                                                                                                                                                                                                                                                              
  7.800000E+02  1.250000E+02 -5.425000E+03  3.544057E-07  2.826617E-15 -9.685711E-16  3.544057E-07  2.016889E-09  1.615207E-17 -5.534681E-18  2.016889E-09  0.000000E+00  0.000000E+00  0.000000E+00  0.000000E+00  0.000000E+00  0.000000E+00  0.000000E+00  0.000000E+00  4.528898E-01  1.046918E-08 -7.603852E-10  4.528898E-01                                                                                                                                                                                                                                                                                                                                                                                                                                                                                              
  8.000000E+02  1.250000E+02 -5.425000E+03  3.544057E-07  1.113543E-15 -7.073906E-16  3.544057E-07  2.016889E-09  6.363090E-18 -4.042223E-18  2.016889E-09  0.000000E+00  0.000000E+00  0.000000E+00  0.000000E+00  0.000000E+00  0.000000E+00  0.000000E+00  0.000000E+00  4.528898E-01  7.109166E-09 -1.068140E-09  4.528898E-01                                                                                                                                                                                                                                                                                                                                                                                                                                                                                              
  9.350000E+02  1.250000E+02 -5.425000E+03  3.544057E-07  8.308405E-15  1.038584E-15  3.544057E-07  2.016889E-09  4.747650E-17  5.934754E-18  2.016889E-09  0.000000E+00  0.000000E+00  0.000000E+00  0.000000E+00  0.000000E+00  0.000000E+00  0.000000E+00  0.000000E+00  4.528898E-01  7.803575E-09  1.051712E-09  4.528898E-01                                                                                                                                                                                                                                                                                                                                                                                                                                                                                              
  1.185000E+03  1.250000E+02 -5.425000E+03  3.544057E-07 -5.580113E-15  4.645848E-16  3.544057E-07  2.016889E-09 -3.188629E-17  2.654765E-18  2.016889E-09  0.000000E+00  0.000000E+00  0.000000E+00  0.000000E+00  0.000000E+00  0.000000E+00  0.000000E+00  0.000000E+00  4.528898E-01 -5.771465E-09  5.195795E-10  4.528898E-01                                                                                                                                                                                                                                                                                                                                                                                                                                                                                              
  1.435000E+03  1.250000E+02 -5.425000E+03  3.544057E-07 -1.357453E-14  3.592574E-15  3.544057E-07  2.016889E-09 -7.756857E-17  2.052895E-17  2.016889E-09  0.000000E+00  0.000000E+00  0.000000E+00  0.000000E+00  0.000000E+00  0.000000E+00  0.000000E+00  0.000000E+00  4.528898E-01 -1.408945E-08  3.691868E-09  4.528898E-01                                                                                                                                                                                                                                                                                                                                                                                                                                                                                              
  1.250000E+02  1.250000E+02 -5.225000E+03  7.910254E-07 -2.269897E-16 -6.219283E-17  7.910254E-07  4.478917E-09 -1.286304E-18 -3.524339E-19  4.478917E-09  0.000000E+00  0.000000E+00  0.000000E+00  0.000000E+00  0.000000E+00  0.000000E+00  0.000000E+00  0.000000E+00  9.723340E-01 -2.183190E-10 -5.677615E-11  9.723340E-01                                                                                                                                                                                                                                                                                                                                                                                                                                                                                              
  3.750000E+02  1.250000E+02 -5.225000E+03  7.910255E-07  1.019425E-16 -5.323796E-16  7.910255E-07  4.478918E-09  5.776873E-19 -3.016885E-18  4.478918E-09  0.000000E+00  0.000000E+00  0.000000E+00  0.000000E+00  0.000000E+00  0.000000E+00  0.000000E+00  0.000000E+00  9.723340E-01  8.678860E-11 -5.025629E-10  9.723340E-01                                                                                                                                                                                                                                                                                                                                                                                                                                                                                              
  6.250000E+02  1.250000E+02 -5.225000E+03  7.910255E-07  8.583123E-16  3.054677E-18  7.910255E-07  4.478918E-09  4.863878E-18  1.731022E-20  4.478918E-09  0.000000E+00  0.000000E+00  0.000000E+00  0.000000E+00  0.000000E+00  0.000000E+00  0.000000E+00  0.000000E+00  9.723340E-01  8.315058E-10  1.166485E-11  9.723340E-01                                                                                                                                                                                                                                                                                                                                                                                                                                                                                              
  7.600000E+02  1.250000E+02 -5.225000E+03  7.910255E-07  8.865292E-16  1.810431E-17  7.910255E-07  4.478918E-09  5.023778E-18  1.025934E-19  4.478918E-09  0.000000E+00  0.000000E+00  0.000000E+00  0.000000E+00  0.000000E+00  0.000000E+00  0.000000E+00  0.000000E+00  9.723340E-01  8.133622E-10  2.959635E-11  9.723340E-01                                                                                                                                                                                                                                                                                                                                                                                                                                                                                              
  7.800000E+02  1.250000E+02 -5.225000E+03  7.910255E-07  4.945609E-16  1.755953E-17  7.910255E-07  4.478918E-09  2.802575E-18  9.950621E-20  4.478918E-09  0.000000E+00  0.000000E+00  0.000000E+00  0.000000E+00  0.000000E+00  0.000000E+00  0.000000E+00  0.000000E+00  9.723340E-01  3.817077E-10  2.223529E-11  9.723340E-01                                                                                                                                                                                                                                                                                                                                                                                                                                                                                              
  8.000000E+02  1.250000E+02 -5.225000E+03  7.910255E-07  5.969375E-17  1.923279E-17  7.910255E-07  4.478918E-09  3.382721E-19  1.089882E-19  4.478918E-09  0.000000E+00  0.000000E+00  0.000000E+00  0.000000E+00  0.000000E+00  0.000000E+00  0.000000E+00  0.000000E+00  9.723340E-01  1.763442E-11  2.191662E-11  9.723340E-01                                                                                                                                                                                                                                                                                                                                                                                                                                                                                              
  9.350000E+02  1.250000E+02 -5.225000E+03  7.910255E-07  3.676519E-16  4.633575E-17  7.910255E-07  4.478918E-09  2.083407E-18  2.625751E-19  4.478918E-09  0.000000E+00  0.000000E+00  0.000000E+00  0.000000E+00  0.000000E+00  0.000000E+00  0.000000E+00  0.000000E+00  9.723340E-01  3.577279E-10  3.873999E-11  9.723340E-01                                                                                                                                                                                                                                                                                                                                                                                                                                                                                              
  1.185000E+03  1.250000E+02 -5.225000E+03  7.910254E-07 -1.483834E-15  2.255208E-16  7.910254E-07  4.478917E-09 -8.408578E-18  1.277980E-18  4.478917E-09  0.000000E+00  0.000000E+00  0.000000E+00  0.000000E+00  0.000000E+00  0.000000E+00  0.000000E+00  0.000000E+00  9.723340E-01 -1.414212E-09  2.272968E-10  9.723340E-01                                                                                                                                                                                                                                                                                                                                                                                                                                                                                              
  1.435000E+03  1.250000E+02 -5.225000E+03  7.910255E-07 -1.929204E-15  2.475164E-16  7.910255E-07  4.478918E-09 -1.093240E-17  1.402624E-18  4.478918E-09  0.000000E+00  0.000000E+00  0.000000E+00  0.000000E+00  0.000000E+00  0.000000E+00  0.000000E+00  0.000000E+00  9.723340E-01 -1.849049E-09  2.228462E-10  9.723340E-01                                                                                                                                                                                                                                                                                                                                                                                                                                                                                              
  1.250000E+02  1.250000E+02 -4.975000E+03  8.867197E-07  4.276139E-15 -7.908080E-16  8.867197E-07  4.975590E-09  2.399387E-17 -4.437308E-18  4.975590E-09  0.000000E+00  0.000000E+00  0.000000E+00  0.000000E+00  0.000000E+00  0.000000E+00  0.000000E+00  0.000000E+00  1.031950E+00  3.879757E-09 -7.698396E-10  1.031950E+00                                                                                                                                                                                                                                                                                                                                                                                                                                                                                              
  3.750000E+02  1.250000E+02 -4.975000E+03  8.867198E-07  1.327225E-14  9.895025E-17  8.867198E-07  4.975591E-09  7.447200E-17  5.552205E-19  4.975591E-09  0.000000E+00  0.000000E+00  0.000000E+00  0.000000E+00  0.000000E+00  0.000000E+00  0.000000E+00  0.000000E+00  1.031950E+00  1.213000E-08  1.011439E-10  1.031950E+00                                                                                                                                                                                                                                                                                                                                                                                                                                                                                              
  6.250000E+02  1.250000E+02 -4.975000E+03  8.867199E-07  1.280564E-14  6.098750E-16  8.867199E-07  4.975591E-09  7.185384E-17  3.422074E-18  4.975591E-09  0.000000E+00  0.000000E+00  0.000000E+00  0.000000E+00  0.000000E+00  0.000000E+00  0.000000E+00  0.000000E+00  1.031950E+00  1.174711E-08  5.920149E-10  1.031950E+00                                                                                                                                                                                                                                                                                                                                                                                                                                                                                              
  7.600000E+02  1.250000E+02 -4.975000E+03  8.867199E-07  5.038381E-15  3.607412E-16  8.867199E-07  4.975591E-09  2.827089E-17  2.024157E-18  4.975591E-09  0.000000E+00  0.000000E+00  0.000000E+00  0.000000E+00  0.000000E+00  0.000000E+00  0.000000E+00  0.000000E+00  1.031950E+00  5.028097E-09  3.442440E-10  1.031950E+00                                                                                                                                                                                                                                                                                                                                                                                                                                                                                              
  7.800000E+02  1.250000E+02 -4.975000E+03  8.867199E-07 -1.435620E-16  3.476965E-16  8.867199E-07  4.975591E-09 -8.055417E-19  1.950962E-18  4.975591E-09  0.000000E+00  0.000000E+00  0.000000E+00  0.000000E+00  0.000000E+00  0.000000E+00  0.000000E+00  0.000000E+00  1.031950E+00  3.374394E-10  2.846308E-10  1.031950E+00                                                                                                                                                                                                                                                                                                                                                                                                                                                                                              
  8.000000E+02  1.250000E+02 -4.975000E+03  8.867199E-07 -5.361105E-15  3.521582E-16  8.867199E-07  4.975591E-09 -3.008174E-17  1.975997E-18  4.975591E-09  0.000000E+00  0.000000E+00  0.000000E+00  0.000000E+00  0.000000E+00  0.000000E+00  0.000000E+00  0.000000E+00  1.031950E+00 -4.928836E-09  3.076098E-10  1.031950E+00                                                                                                                                                                                                                                                                                                                                                                                                                                                                                              
  9.350000E+02  1.250000E+02 -4.975000E+03  8.867199E-07 -1.335839E-14  5.497278E-16  8.867199E-07  4.975591E-09 -7.495538E-17  3.084582E-18  4.975591E-09  0.000000E+00  0.000000E+00  0.000000E+00  0.000000E+00  0.000000E+00  0.000000E+00  0.000000E+00  0.000000E+00  1.031950E+00 -1.233554E-08  5.359743E-10  1.031950E+00                                                                                                                                                                                                                                                                                                                                                                                                                                                                                              
  1.185000E+03  1.250000E+02 -4.975000E+03  8.867198E-07 -1.454832E-14 -1.578875E-16  8.867198E-07  4.975591E-09 -8.163216E-17 -8.859235E-19  4.975591E-09  0.000000E+00  0.000000E+00  0.000000E+00  0.000000E+00  0.000000E+00  0.000000E+00  0.000000E+00  0.000000E+00  1.031950E+00 -1.335504E-08 -1.618419E-10  1.031950E+00                                                                                                                                                                                                                                                                                                                                                                                                                                                                                              
  1.435000E+03  1.250000E+02 -4.975000E+03  8.867197E-07 -5.178620E-15  5.316355E-16  8.867197E-07  4.975590E-09 -2.905779E-17  2.983064E-18  4.975590E-09  0.000000E+00  0.000000E+00  0.000000E+00  0.000000E+00  0.000000E+00  0.000000E+00  0.000000E+00  0.000000E+00  1.031950E+00 -4.754549E-09  5.154265E-10  1.031950E+00                                                                                                                                                                                                                                                                                                                                                                                                                                                                                              
  1.250000E+02  1.250000E+02 -4.725000E+03  1.231304E-06  5.538277E-14  4.949594E-16  1.231304E-06  6.841924E-09  3.078411E-16  2.751195E-18  6.841924E-09  0.000000E+00  0.000000E+00  0.000000E+00  0.000000E+00  0.000000E+00  0.000000E+00  0.000000E+00  0.000000E+00  1.293988E+00  4.834290E-08  4.401112E-10  1.293988E+00                                                                                                                                                                                                                                                                                                                                                                                                                                                                                              
  3.750000E+02  1.250000E+02 -4.725000E+03  1.231304E-06  1.597515E-13 -2.709040E-16  1.231304E-06  6.841927E-09  8.879670E-16 -1.505800E-18  6.841927E-09  0.000000E+00  0.000000E+00  0.000000E+00  0.000000E+00  0.000000E+00  0.000000E+00  0.000000E+00  0.000000E+00  1.293988E+00  1.394165E-07 -2.431152E-10  1.293988E+00                                                                                                                                                                                                                                                                                                                                                                                                                                                                                              
  6.250000E+02  1.250000E+02 -4.725000E+03  1.231305E-06  1.737937E-13 -2.911521E-16  1.231305E-06  6.841931E-09  9.660197E-16 -1.618347E-18  6.841931E-09  0.000000E+00  0.000000E+00  0.000000E+00  0.000000E+00  0.000000E+00  0.000000E+00  0.000000E+00  0.000000E+00  1.293989E+00  1.510418E-07 -2.625146E-10  1.293989E+00                                                                                                                                                                                                                                                                                                                                                                                                                                                                                              
  7.600000E+02  1.250000E+02 -4.725000E+03  1.231306E-06  8.730871E-14 -1.875229E-16  1.231306E-06  6.841936E-09  4.852990E-16 -1.042332E-18  6.841936E-09  0.000000E+00  0.000000E+00  0.000000E+00  0.000000E+00  0.000000E+00  0.000000E+00  0.000000E+00  0.000000E+00  1.293988E+00  8.897199E-08 -1.841169E-10  1.293988E+00                                                                                                                                                                                                                                                                                                                                                                                                                                                                                              
  7.800000E+02  1.250000E+02 -4.725000E+03  1.231305E-06 -6.234821E-16 -1.641992E-16  1.231305E-06  6.841932E-09 -3.465579E-18 -9.126894E-19  6.841932E-09  0.000000E+00  0.000000E+00  0.000000E+00  0.000000E+00  0.000000E+00  0.000000E+00  0.000000E+00  0.000000E+00  1.293992E+00 -1.126918E-09 -1.584915E-10  1.293992E+00                                                                                                                                                                                                                                                                                                                                                                                                                                                                                              
  8.000000E+02  1.250000E+02 -4.725000E+03  1.231306E-06 -8.859378E-14 -1.314107E-16  1.231306E-06  6.841936E-09 -4.924420E-16 -7.304364E-19  6.841936E-09  0.000000E+00  0.000000E+00  0.000000E+00  0.000000E+00  0.000000E+00  0.000000E+00  0.000000E+00  0.000000E+00  1.293988E+00 -9.064031E-08 -1.100185E-10  1.293988E+00                                                                                                                                                                                                                                                                                                                                                                                                                                                                                              
  9.350000E+02  1.250000E+02 -4.725000E+03  1.231305E-06 -1.745321E-13  1.649590E-16  1.231305E-06  6.841931E-09 -9.701240E-16  9.169124E-19  6.841931E-09  0.000000E+00  0.000000E+00  0.000000E+00  0.000000E+00  0.000000E+00  0.000000E+00  0.000000E+00  0.000000E+00  1.293989E+00 -1.516491E-07  1.894043E-10  1.293989E+00                                                                                                                                                                                                                                                                                                                                                                                                                                                                                              
  1.185000E+03  1.250000E+02 -4.725000E+03  1.231304E-06 -1.598055E-13 -8.412259E-17  1.231304E-06  6.841927E-09 -8.882670E-16 -4.675892E-19  6.841927E-09  0.000000E+00  0.000000E+00  0.000000E+00  0.000000E+00  0.000000E+00  0.000000E+00  0.000000E+00  0.000000E+00  1.293988E+00 -1.394519E-07 -7.847925E-11  1.293988E+00                                                                                                                                                                                                                                                                                                                                                                                                                                                                                              