Title="TOUGHREACT V3.30-OMP flowdata.tec: P,T,SAT & Other Variables"                                                                                                                                                                                                                                                                                                                                                                                                                                                                                                                                                                                                                                                                                                                                                            
Variables= "X(m)"     "Y(m)"      "Z(m)"       "P(Pa)"        "T(C)"      "SatGas"      "SatLiq"          "X1"          "X2"    "Pcap(Pa)"  "DGas_kg/m3"  "DLiq_kg/m3"    "Porosity"  "Perm_X(m2)"  "Perm_Y(m2)"  "Perm_Z(m2)"    "Krel_Gas"    "Krel_Liq"                                                                                                                                                                                                                                                                                                                                                                                                                                                                                                                                                                      
Zone T= "1.00000000E+09 sec" I=     9 J=    10 K=    23 F=Point
  1.250000E+02  1.250000E+02 -5.425000E+03  5.746049E+07  2.263947E+02  0.000000E+00  1.000000E+00  1.000000E+00  0.000000E+00  0.000000E+00  1.309767E+01  8.746775E+02  1.988565E-01  1.000000E-16  1.000000E-16  1.000000E-16  0.000000E+00  1.000000E+00                                                                                                                                                                                                                                                                                                                                                                                                                                                                                                                                                                    
  3.750000E+02  1.250000E+02 -5.425000E+03  5.746049E+07  2.263947E+02  0.000000E+00  1.000000E+00  1.000000E+00  0.000000E+00  0.000000E+00  1.309767E+01  8.746775E+02  1.988565E-01  1.000000E-16  1.000000E-16  1.000000E-16  0.000000E+00  1.000000E+00                                                                                                                                                                                                                                                                                                                                                                                                                                                                                                                                                                    
  6.250000E+02  1.250000E+02 -5.425000E+03  5.746049E+07  2.263947E+02  0.000000E+00  1.000000E+00  1.000000E+00  0.000000E+00  0.000000E+00  1.309767E+01  8.746775E+02  1.988565E-01  1.000000E-16  1.000000E-16  1.000000E-16  0.000000E+00  1.000000E+00                                                                                                                                                                                                                                                                                                                                                                                                                                                                                                                                                                    
  7.600000E+02  1.250000E+02 -5.425000E+03  5.746049E+07  2.263947E+02  0.000000E+00  1.000000E+00  1.000000E+00  0.000000E+00  0.000000E+00  1.309767E+01  8.746775E+02  1.988565E-01  1.000000E-16  1.000000E-16  1.000000E-16  0.000000E+00  1.000000E+00                                                                                                                                                                                                                                                                                                                                                                                                                                                                                                                                                                    
  7.800000E+02  1.250000E+02 -5.425000E+03  5.746049E+07  2.263947E+02  0.000000E+00  1.000000E+00  1.000000E+00  0.000000E+00  0.000000E+00  1.309767E+01  8.746775E+02  1.988565E-01  1.000000E-16  1.000000E-16  1.000000E-16  0.000000E+00  1.000000E+00                                                                                                                                                                                                                                                                                                                                                                                                                                                                                                                                                                    
  8.000000E+02  1.250000E+02 -5.425000E+03  5.746049E+07  2.263947E+02  0.000000E+00  1.000000E+00  1.000000E+00  0.000000E+00  0.000000E+00  1.309767E+01  8.746775E+02  1.988565E-01  1.000000E-16  1.000000E-16  1.000000E-16  0.000000E+00  1.000000E+00                                                                                                                                                                                                                                                                                                                                                                                                                                                                                                                                                                    
  9.350000E+02  1.250000E+02 -5.425000E+03  5.746049E+07  2.263947E+02  0.000000E+00  1.000000E+00  1.000000E+00  0.000000E+00  0.000000E+00  1.309767E+01  8.746775E+02  1.988565E-01  1.000000E-16  1.000000E-16  1.000000E-16  0.000000E+00  1.000000E+00                                                                                                                                                                                                                                                                                                                                                                                                                                                                                                                                                                    
  1.185000E+03  1.250000E+02 -5.425000E+03  5.746049E+07  2.263947E+02  0.000000E+00  1.000000E+00  1.000000E+00  0.000000E+00  0.000000E+00  1.309767E+01  8.746775E+02  1.988565E-01  1.000000E-16  1.000000E-16  1.000000E-16  0.000000E+00  1.000000E+00                                                                                                                                                                                                                                                                                                                                                                                                                                                                                                                                                                    
  1.435000E+03  1.250000E+02 -5.425000E+03  5.746049E+07  2.263947E+02  0.000000E+00  1.000000E+00  1.000000E+00  0.000000E+00  0.000000E+00  1.309767E+01  8.746775E+02  1.988565E-01  1.000000E-16  1.000000E-16  1.000000E-16  0.000000E+00  1.000000E+00                                                                                                                                                                                                                                                                                                                                                                                                                                                                                                                                                                    
  1.250000E+02  1.250000E+02 -5.225000E+03  5.571979E+07  2.189102E+02  0.000000E+00  1.000000E+00  1.000000E+00  0.000000E+00  0.000000E+00  1.138579E+01  8.814793E+02  1.990304E-01  1.000000E-16  1.000000E-16  1.000000E-16  0.000000E+00  1.000000E+00                                                                                                                                                                                                                                                                                                                                                                                                                                                                                                                                                                    
  3.750000E+02  1.250000E+02 -5.225000E+03  5.571979E+07  2.189102E+02  0.000000E+00  1.000000E+00  1.000000E+00  0.000000E+00  0.000000E+00  1.138579E+01  8.814793E+02  1.990304E-01  1.000000E-16  1.000000E-16  1.000000E-16  0.000000E+00  1.000000E+00                                                                                                                                                                                                                                                                                                                                                                                                                                                                                                                                                                    
  6.250000E+02  1.250000E+02 -5.225000E+03  5.571979E+07  2.189102E+02  0.000000E+00  1.000000E+00  1.000000E+00  0.000000E+00  0.000000E+00  1.138579E+01  8.814793E+02  1.990304E-01  1.000000E-16  1.000000E-16  1.000000E-16  0.000000E+00  1.000000E+00                                                                                                                                                                                                                                                                                                                                                                                                                                                                                                                                                                    
  7.600000E+02  1.250000E+02 -5.225000E+03  5.571979E+07  2.189102E+02  0.000000E+00  1.000000E+00  1.000000E+00  0.000000E+00  0.000000E+00  1.138579E+01  8.814793E+02  1.990304E-01  1.000000E-16  1.000000E-16  1.000000E-16  0.000000E+00  1.000000E+00                                                                                                                                                                                                                                                                                                                                                                                                                                                                                                                                                                    
  7.800000E+02  1.250000E+02 -5.225000E+03  5.571979E+07  2.189102E+02  0.000000E+00  1.000000E+00  1.000000E+00  0.000000E+00  0.000000E+00  1.138579E+01  8.814793E+02  1.990304E-01  1.000000E-16  1.000000E-16  1.000000E-16  0.000000E+00  1.000000E+00                                                                                                                                                                                                                                                                                                                                                                                                                                                                                                                                                                    
  8.000000E+02  1.250000E+02 -5.225000E+03  5.571979E+07  2.189102E+02  0.000000E+00  1.000000E+00  1.000000E+00  0.000000E+00  0.000000E+00  1.138579E+01  8.814793E+02  1.990304E-01  1.000000E-16  1.000000E-16  1.000000E-16  0.000000E+00  1.000000E+00                                                                                                                                                                                                                                                                                                                                                                                                                                                                                                                                                                    
  9.350000E+02  1.250000E+02 -5.225000E+03  5.571979E+07  2.189102E+02  0.000000E+00  1.000000E+00  1.000000E+00  0.000000E+00  0.000000E+00  1.138579E+01  8.814793E+02  1.990304E-01  1.000000E-16  1.000000E-16  1.000000E-16  0.000000E+00  1.000000E+00                                                                                                                                                                                                                                                                                                                                                                                                                                                                                                                                                                    
  1.185000E+03  1.250000E+02 -5.225000E+03  5.571979E+07  2.189102E+02  0.000000E+00  1.000000E+00  1.000000E+00  0.000000E+00  0.000000E+00  1.138579E+01  8.814793E+02  1.990304E-01  1.000000E-16  1.000000E-16  1.000000E-16  0.000000E+00  1.000000E+00                                                                                                                                                                                                                                                                                                                                                                                                                                                                                                                                                                    
  1.435000E+03  1.250000E+02 -5.225000E+03  5.571979E+07  2.189102E+02  0.000000E+00  1.000000E+00  1.000000E+00  0.000000E+00  0.000000E+00  1.138579E+01  8.814793E+02  1.990304E-01  1.000000E-16  1.000000E-16  1.000000E-16  0.000000E+00  1.000000E+00                                                                                                                                                                                                                                                                                                                                                                                                                                                                                                                                                                    
  1.250000E+02  1.250000E+02 -4.975000E+03  5.347496E+07  2.089588E+02  0.000000E+00  1.000000E+00  1.000000E+00  0.000000E+00  0.000000E+00  9.400004E+00  8.903693E+02  1.992004E-01  1.000000E-16  1.000000E-16  1.000000E-16  0.000000E+00  1.000000E+00                                                                                                                                                                                                                                                                                                                                                                                                                                                                                                                                                                    
  3.750000E+02  1.250000E+02 -4.975000E+03  5.347496E+07  2.089588E+02  0.000000E+00  1.000000E+00  1.000000E+00  0.000000E+00  0.000000E+00  9.400004E+00  8.903693E+02  1.992004E-01  1.000000E-16  1.000000E-16  1.000000E-16  0.000000E+00  1.000000E+00                                                                                                                                                                                                                                                                                                                                                                                                                                                                                                                                                                    
  6.250000E+02  1.250000E+02 -4.975000E+03  5.347496E+07  2.089588E+02  0.000000E+00  1.000000E+00  1.000000E+00  0.000000E+00  0.000000E+00  9.400004E+00  8.903693E+02  1.992004E-01  1.000000E-16  1.000000E-16  1.000000E-16  0.000000E+00  1.000000E+00                                                                                                                                                                                                                                                                                                                                                                                                                                                                                                                                                                    
  7.600000E+02  1.250000E+02 -4.975000E+03  5.347496E+07  2.089588E+02  0.000000E+00  1.000000E+00  1.000000E+00  0.000000E+00  0.000000E+00  9.400005E+00  8.903693E+02  1.992004E-01  1.000000E-16  1.000000E-16  1.000000E-16  0.000000E+00  1.000000E+00                                                                                                                                                                                                                                                                                                                                                                                                                                                                                                                                                                    
  7.800000E+02  1.250000E+02 -4.975000E+03  5.347496E+07  2.089588E+02  0.000000E+00  1.000000E+00  1.000000E+00  0.000000E+00  0.000000E+00  9.400005E+00  8.903693E+02  1.992004E-01  1.000000E-16  1.000000E-16  1.000000E-16  0.000000E+00  1.000000E+00                                                                                                                                                                                                                                                                                                                                                                                                                                                                                                                                                                    
  8.000000E+02  1.250000E+02 -4.975000E+03  5.347496E+07  2.089588E+02  0.000000E+00  1.000000E+00  1.000000E+00  0.000000E+00  0.000000E+00  9.400005E+00  8.903693E+02  1.992004E-01  1.000000E-16  1.000000E-16  1.000000E-16  0.000000E+00  1.000000E+00                                                                                                                                                                                                                                                                                                                                                                                                                                                                                                                                                                    
  9.350000E+02  1.250000E+02 -4.975000E+03  5.347496E+07  2.089588E+02  0.000000E+00  1.000000E+00  1.000000E+00  0.000000E+00  0.000000E+00  9.400004E+00  8.903693E+02  1.992004E-01  1.000000E-16  1.000000E-16  1.000000E-16  0.000000E+00  1.000000E+00                                                                                                                                                                                                                                                                                                                                                                                                                                                                                                                                                                    
  1.185000E+03  1.250000E+02 -4.975000E+03  5.347496E+07  2.089588E+02  0.000000E+00  1.000000E+00  1.000000E+00  0.000000E+00  0.000000E+00  9.400004E+00  8.903693E+02  1.992004E-01  1.000000E-16  1.000000E-16  1.000000E-16  0.000000E+00  1.000000E+00                                                                                                                                                                                                                                                                                                                                                                                                                                                                                                                                                                    
  1.435000E+03  1.250000E+02 -4.975000E+03  5.347496E+07  2.089588E+02  0.000000E+00  1.000000E+00  1.000000E+00  0.000000E+00  0.000000E+00  9.400004E+00  8.903693E+02  1.992004E-01  1.000000E-16  1.000000E-16  1.000000E-16  0.000000E+00  1.000000E+00                                                                                                                                                                                                                                                                                                                                                                                                                                                                                                                                                                    
  1.250000E+02  1.250000E+02 -4.725000E+03  5.116116E+07  1.989888E+02  0.000000E+00  1.000000E+00  1.000000E+00  0.000000E+00  0.000000E+00  7.704436E+00  8.990063E+02  1.993265E-01  1.000000E-16  1.000000E-16  1.000000E-16  0.000000E+00  1.000000E+00                                                                                                                                                                                                                                                                                                                                                                                                                                                                                                                                                                    
  3.750000E+02  1.250000E+02 -4.725000E+03  5.116116E+07  1.989888E+02  0.000000E+00  1.000000E+00  1.000000E+00  0.000000E+00  0.000000E+00  7.704436E+00  8.990063E+02  1.993265E-01  1.000000E-16  1.000000E-16  1.000000E-16  0.000000E+00  1.000000E+00                                                                                                                                                                                                                                                                                                                                                                                                                                                                                                                                                                    
  6.250000E+02  1.250000E+02 -4.725000E+03  5.116116E+07  1.989888E+02  0.000000E+00  1.000000E+00  1.000000E+00  0.000000E+00  0.000000E+00  7.704440E+00  8.990062E+02  1.993265E-01  1.000000E-16  1.000000E-16  1.000000E-16  0.000000E+00  1.000000E+00                                                                                                                                                                                                                                                                                                                                                                                                                                                                                                                                                                    
  7.600000E+02  1.250000E+02 -4.725000E+03  5.116116E+07  1.989893E+02  0.000000E+00  1.000000E+00  1.000000E+00  0.000000E+00  0.000000E+00  7.704515E+00  8.990058E+02  1.993265E-01  1.000000E-16  1.000000E-16  1.000000E-16  0.000000E+00  1.000000E+00                                                                                                                                                                                                                                                                                                                                                                                                                                                                                                                                                                    
  7.800000E+02  1.250000E+02 -4.725000E+03  5.116116E+07  1.989893E+02  0.000000E+00  1.000000E+00  1.000000E+00  0.000000E+00  0.000000E+00  7.704518E+00  8.990057E+02  1.993265E-01  1.000000E-16  1.000000E-16  1.000000E-16  0.000000E+00  1.000000E+00                                                                                                                                                                                                                                                                                                                                                                                                                                                                                                                                                                    
  8.000000E+02  1.250000E+02 -4.725000E+03  5.116116E+07  1.989893E+02  0.000000E+00  1.000000E+00  1.000000E+00  0.000000E+00  0.000000E+00  7.704515E+00  8.990058E+02  1.993265E-01  1.000000E-16  1.000000E-16  1.000000E-16  0.000000E+00  1.000000E+00                                                                                                                                                                                                                                                                                                                                                                                                                                                                                                                                                                    
  9.350000E+02  1.250000E+02 -4.725000E+03  5.116116E+07  1.989888E+02  0.000000E+00  1.000000E+00  1.000000E+00  0.000000E+00  0.000000E+00  7.704440E+00  8.990062E+02  1.993265E-01  1.000000E-16  1.000000E-16  1.000000E-16  0.000000E+00  1.000000E+00                                                                                                                                                                                                                                                                                                                                                                                                                                                                                                                                                                    
  1.185000E+03  1.250000E+02 -4.725000E+03  5.116116E+07  1.989888E+02  0.000000E+00  1.000000E+00  1.000000E+00  0.000000E+00  0.000000E+00  7.704436E+00  8.990063E+02  1.993265E-01  1.000000E-16  1.000000E-16  1.000000E-16  0.000000E+00  1.000000E+00                                                                                                                                                                                                                                                                                                                                                                                                                                                                                                                                                                    