Title="TOUGHREACT V3.30-OMP flowvector.tec: Liq & Gas Fluxes (kg/s/m^2), Pore Velocities (m/s), & Heat Fluxes (J/s/m2)"                                                                                                                                                                                                                                                                                                                                                                                                                                                                                                                                                                                                                                                                                                         
Variables= "X(m)"     "Y(m)"      "Z(m)"     "FluxLiq"   "FluxLiq_X"   "FluxLiq_Y"   "FluxLiq_Z"   "PorVelLiq"  "PorVelLiqX"  "PorVelLiqY"  "PorVelLiqZ"     "FluxGas"   "FluxGas_X"   "FluxGas_Y"   "FluxGas_Z"   "PorVelGas"  "PorVelGasX"  "PorVelGasY"  "PorVelGasZ"    "HeatFlux"  "HeatFlux_X"  "HeatFlux_Y"  "HeatFlux_Z"                                                                                                                                                                                                                                                                                                                                                                                                                                                                                                
Zone T= "5.18400000E+05 sec" I=     9 J=    10 K=    23 F=Point
  1.250000E+02  1.250000E+02 -5.425000E+03  4.709846E-07  1.172118E-15 -8.419167E-17  4.709846E-07  2.679843E-09  6.696459E-18 -4.809975E-19  2.679843E-09  0.000000E+00  0.000000E+00  0.000000E+00  0.000000E+00  0.000000E+00  0.000000E+00  0.000000E+00  0.000000E+00  5.691665E-01  1.187504E-09 -8.372648E-11  5.691665E-01                                                                                                                                                                                                                                                                                                                                                                                                                                                                                              
  3.750000E+02  1.250000E+02 -5.425000E+03  4.709846E-07  3.414793E-15 -8.507560E-17  4.709846E-07  2.679843E-09  1.950914E-17 -4.860475E-19  2.679843E-09  0.000000E+00  0.000000E+00  0.000000E+00  0.000000E+00  0.000000E+00  0.000000E+00  0.000000E+00  0.000000E+00  5.691665E-01  3.486771E-09 -8.460246E-11  5.691665E-01                                                                                                                                                                                                                                                                                                                                                                                                                                                                                              
  6.250000E+02  1.250000E+02 -5.425000E+03  4.709846E-07 -2.333357E-16  5.181507E-16  4.709846E-07  2.679843E-09 -1.333076E-18  2.960260E-18  2.679843E-09  0.000000E+00  0.000000E+00  0.000000E+00  0.000000E+00  0.000000E+00  0.000000E+00  0.000000E+00  0.000000E+00  5.691665E-01 -2.028888E-10  5.292587E-10  5.691665E-01                                                                                                                                                                                                                                                                                                                                                                                                                                                                                              
  7.600000E+02  1.250000E+02 -5.425000E+03  4.709846E-07 -1.239761E-14 -4.797346E-16  4.709846E-07  2.679843E-09 -7.082907E-17 -2.740784E-18  2.679843E-09  0.000000E+00  0.000000E+00  0.000000E+00  0.000000E+00  0.000000E+00  0.000000E+00  0.000000E+00  0.000000E+00  5.691665E-01 -1.316445E-08 -4.991018E-10  5.691665E-01                                                                                                                                                                                                                                                                                                                                                                                                                                                                                              
  7.800000E+02  1.250000E+02 -5.425000E+03  4.709846E-07  2.291261E-15 -1.348239E-16  4.709846E-07  2.679843E-09  1.309026E-17 -7.702655E-19  2.679843E-09  0.000000E+00  0.000000E+00  0.000000E+00  0.000000E+00  0.000000E+00  0.000000E+00  0.000000E+00  0.000000E+00  5.691665E-01  2.228057E-09 -1.206376E-10  5.691665E-01                                                                                                                                                                                                                                                                                                                                                                                                                                                                                              
  8.000000E+02  1.250000E+02 -5.425000E+03  4.709846E-07  1.537953E-14 -1.315394E-15  4.709846E-07  2.679843E-09  8.786517E-17 -7.515011E-18  2.679843E-09  0.000000E+00  0.000000E+00  0.000000E+00  0.000000E+00  0.000000E+00  0.000000E+00  0.000000E+00  0.000000E+00  5.691665E-01  1.611426E-08 -1.357268E-09  5.691665E-01                                                                                                                                                                                                                                                                                                                                                                                                                                                                                              
  9.350000E+02  1.250000E+02 -5.425000E+03  4.709846E-07  3.690806E-16  1.636359E-16  4.709846E-07  2.679843E-09  2.108604E-18  9.348726E-19  2.679843E-09  0.000000E+00  0.000000E+00  0.000000E+00  0.000000E+00  0.000000E+00  0.000000E+00  0.000000E+00  0.000000E+00  5.691665E-01  3.579856E-10  1.627164E-10  5.691665E-01                                                                                                                                                                                                                                                                                                                                                                                                                                                                                              
  1.185000E+03  1.250000E+02 -5.425000E+03  4.709846E-07 -3.971052E-15 -8.592973E-17  4.709846E-07  2.679843E-09 -2.268711E-17 -4.909273E-19  2.679843E-09  0.000000E+00  0.000000E+00  0.000000E+00  0.000000E+00  0.000000E+00  0.000000E+00  0.000000E+00  0.000000E+00  5.691665E-01 -4.054761E-09 -8.545359E-11  5.691665E-01                                                                                                                                                                                                                                                                                                                                                                                                                                                                                              
  1.435000E+03  1.250000E+02 -5.425000E+03  4.709846E-07 -1.173459E-15 -8.419167E-17  4.709846E-07  2.679843E-09 -6.704119E-18 -4.809975E-19  2.679843E-09  0.000000E+00  0.000000E+00  0.000000E+00  0.000000E+00  0.000000E+00  0.000000E+00  0.000000E+00  0.000000E+00  5.691665E-01 -1.188841E-09 -8.372648E-11  5.691665E-01                                                                                                                                                                                                                                                                                                                                                                                                                                                                                              
  1.250000E+02  1.250000E+02 -5.225000E+03  9.154797E-07  3.553717E-17 -2.529336E-19  9.154797E-07  5.186263E-09  2.013801E-19 -1.433310E-21  5.186263E-09  0.000000E+00  0.000000E+00  0.000000E+00  0.000000E+00  0.000000E+00  0.000000E+00  0.000000E+00  0.000000E+00  1.096182E+00  3.505888E-11 -2.429874E-13  1.096182E+00                                                                                                                                                                                                                                                                                                                                                                                                                                                                                              
  3.750000E+02  1.250000E+02 -5.225000E+03  9.154797E-07 -1.537058E-18 -2.432054E-19  9.154797E-07  5.186263E-09 -8.710116E-21 -1.378183E-21  5.186263E-09  0.000000E+00  0.000000E+00  0.000000E+00  0.000000E+00  0.000000E+00  0.000000E+00  0.000000E+00  0.000000E+00  1.096182E+00 -1.910899E-12 -2.336417E-13  1.096182E+00                                                                                                                                                                                                                                                                                                                                                                                                                                                                                              
  6.250000E+02  1.250000E+02 -5.225000E+03  9.154797E-07  2.100682E-17  1.585699E-18  9.154797E-07  5.186263E-09  1.190403E-19  8.985753E-21  5.186263E-09  0.000000E+00  0.000000E+00  0.000000E+00  0.000000E+00  0.000000E+00  0.000000E+00  0.000000E+00  0.000000E+00  1.096182E+00  2.094842E-11  1.524196E-12  1.096182E+00                                                                                                                                                                                                                                                                                                                                                                                                                                                                                              
  7.600000E+02  1.250000E+02 -5.225000E+03  9.154797E-07  2.714937E-16  1.051620E-17  9.154797E-07  5.186263E-09  1.538486E-18  5.959263E-20  5.186263E-09  0.000000E+00  0.000000E+00  0.000000E+00  0.000000E+00  0.000000E+00  0.000000E+00  0.000000E+00  0.000000E+00  1.096182E+00  2.693372E-10  1.010778E-11  1.096182E+00                                                                                                                                                                                                                                                                                                                                                                                                                                                                                              
  7.800000E+02  1.250000E+02 -5.225000E+03  9.154797E-07  9.032647E-16  4.460386E-17  9.154797E-07  5.186263E-09  5.118571E-18  2.527587E-19  5.186263E-09  0.000000E+00  0.000000E+00  0.000000E+00  0.000000E+00  0.000000E+00  0.000000E+00  0.000000E+00  0.000000E+00  1.096182E+00  8.918752E-10  4.468962E-11  1.096182E+00                                                                                                                                                                                                                                                                                                                                                                                                                                                                                              
  8.000000E+02  1.250000E+02 -5.225000E+03  9.154797E-07  4.988367E-16  6.556816E-18  9.154797E-07  5.186263E-09  2.826781E-18  3.715581E-20  5.186263E-09  0.000000E+00  0.000000E+00  0.000000E+00  0.000000E+00  0.000000E+00  0.000000E+00  0.000000E+00  0.000000E+00  1.096182E+00  4.912043E-10  6.307506E-12  1.096182E+00                                                                                                                                                                                                                                                                                                                                                                                                                                                                                              
  9.350000E+02  1.250000E+02 -5.225000E+03  9.154797E-07 -1.544080E-16  5.155954E-19  9.154797E-07  5.186263E-09 -8.749910E-19  2.921748E-21  5.186263E-09  0.000000E+00  0.000000E+00  0.000000E+00  0.000000E+00  0.000000E+00  0.000000E+00  0.000000E+00  0.000000E+00  1.096182E+00 -1.527026E-10  4.956046E-13  1.096182E+00                                                                                                                                                                                                                                                                                                                                                                                                                                                                                              
  1.185000E+03  1.250000E+02 -5.225000E+03  9.154797E-07  1.060375E-18 -2.529336E-19  9.154797E-07  5.186263E-09  6.008877E-21 -1.433310E-21  5.186263E-09  0.000000E+00  0.000000E+00  0.000000E+00  0.000000E+00  0.000000E+00  0.000000E+00  0.000000E+00  0.000000E+00  1.096182E+00  1.481099E-12 -2.429874E-13  1.096182E+00                                                                                                                                                                                                                                                                                                                                                                                                                                                                                              
  1.435000E+03  1.250000E+02 -5.225000E+03  9.154797E-07 -3.554690E-17 -2.529336E-19  9.154797E-07  5.186263E-09 -2.014352E-19 -1.433310E-21  5.186263E-09  0.000000E+00  0.000000E+00  0.000000E+00  0.000000E+00  0.000000E+00  0.000000E+00  0.000000E+00  0.000000E+00  1.096182E+00 -3.506823E-11 -2.429874E-13  1.096182E+00                                                                                                                                                                                                                                                                                                                                                                                                                                                                                              
  1.250000E+02  1.250000E+02 -4.975000E+03  8.508502E-07  8.745574E-17  0.000000E+00  8.508502E-07  4.775678E-09  4.907258E-19  0.000000E+00  4.775678E-09  0.000000E+00  0.000000E+00  0.000000E+00  0.000000E+00  0.000000E+00  0.000000E+00  0.000000E+00  0.000000E+00  9.994128E-01  8.166909E-11  0.000000E+00  9.994128E-01                                                                                                                                                                                                                                                                                                                                                                                                                                                                                              
  3.750000E+02  1.250000E+02 -4.975000E+03  8.508502E-07  1.123918E-17  6.616842E-20  8.508502E-07  4.775678E-09  6.306452E-20  3.712798E-22  4.775678E-09  0.000000E+00  0.000000E+00  0.000000E+00  0.000000E+00  0.000000E+00  0.000000E+00  0.000000E+00  0.000000E+00  9.994128E-01  8.349628E-12  6.063875E-14  9.994128E-01                                                                                                                                                                                                                                                                                                                                                                                                                                                                                              
  6.250000E+02  1.250000E+02 -4.975000E+03  8.508502E-07  2.560434E-16 -5.671578E-20  8.508502E-07  4.775678E-09  1.436694E-18 -3.182398E-22  4.775678E-09  0.000000E+00  0.000000E+00  0.000000E+00  0.000000E+00  0.000000E+00  0.000000E+00  0.000000E+00  0.000000E+00  9.994128E-01  2.378486E-10 -5.197607E-14  9.994128E-01                                                                                                                                                                                                                                                                                                                                                                                                                                                                                              
  7.600000E+02  1.250000E+02 -4.975000E+03  8.508503E-07  1.096269E-15 -2.627831E-18  8.508503E-07  4.775678E-09  6.151310E-18 -1.474511E-20  4.775678E-09  0.000000E+00  0.000000E+00  0.000000E+00  0.000000E+00  0.000000E+00  0.000000E+00  0.000000E+00  0.000000E+00  9.994128E-01  1.050604E-09 -2.451710E-12  9.994128E-01                                                                                                                                                                                                                                                                                                                                                                                                                                                                                              
  7.800000E+02  1.250000E+02 -4.975000E+03  8.508503E-07 -2.245000E-18 -6.456147E-18  8.508503E-07  4.775678E-09 -1.259699E-20 -3.622630E-20  4.775678E-09  0.000000E+00  0.000000E+00  0.000000E+00  0.000000E+00  0.000000E+00  0.000000E+00  0.000000E+00  0.000000E+00  9.994128E-01 -2.060939E-12 -5.929400E-12  9.994128E-01                                                                                                                                                                                                                                                                                                                                                                                                                                                                                              
  8.000000E+02  1.250000E+02 -4.975000E+03  8.508503E-07 -1.101087E-15 -4.103387E-17  8.508503E-07  4.775678E-09 -6.178346E-18 -2.302465E-19  4.775678E-09  0.000000E+00  0.000000E+00  0.000000E+00  0.000000E+00  0.000000E+00  0.000000E+00  0.000000E+00  0.000000E+00  9.994128E-01 -1.055099E-09 -3.915623E-11  9.994128E-01                                                                                                                                                                                                                                                                                                                                                                                                                                                                                              
  9.350000E+02  1.250000E+02 -4.975000E+03  8.508502E-07 -2.570569E-16  1.342274E-18  8.508502E-07  4.775678E-09 -1.442381E-18  7.531675E-21  4.775678E-09  0.000000E+00  0.000000E+00  0.000000E+00  0.000000E+00  0.000000E+00  0.000000E+00  0.000000E+00  0.000000E+00  9.994128E-01 -2.388118E-10  1.271028E-12  9.994128E-01                                                                                                                                                                                                                                                                                                                                                                                                                                                                                              
  1.185000E+03  1.250000E+02 -4.975000E+03  8.508502E-07 -9.745662E-18  4.726315E-20  8.508502E-07  4.775678E-09 -5.468421E-20  2.651998E-22  4.775678E-09  0.000000E+00  0.000000E+00  0.000000E+00  0.000000E+00  0.000000E+00  0.000000E+00  0.000000E+00  0.000000E+00  9.994128E-01 -6.939997E-12  4.331340E-14  9.994128E-01                                                                                                                                                                                                                                                                                                                                                                                                                                                                                              
  1.435000E+03  1.250000E+02 -4.975000E+03  8.508502E-07 -8.752191E-17  1.228842E-19  8.508502E-07  4.775678E-09 -4.910971E-19  6.895196E-22  4.775678E-09  0.000000E+00  0.000000E+00  0.000000E+00  0.000000E+00  0.000000E+00  0.000000E+00  0.000000E+00  0.000000E+00  9.994128E-01 -8.172973E-11  1.126148E-13  9.994128E-01                                                                                                                                                                                                                                                                                                                                                                                                                                                                                              
  1.250000E+02  1.250000E+02 -4.725000E+03  9.746994E-07  5.683115E-15  2.654502E-19  9.746994E-07  5.417910E-09  3.158661E-17  1.475366E-21  5.417910E-09  0.000000E+00  0.000000E+00  0.000000E+00  0.000000E+00  0.000000E+00  0.000000E+00  0.000000E+00  0.000000E+00  1.068175E+00  4.959752E-09  2.324037E-13  1.068175E+00                                                                                                                                                                                                                                                                                                                                                                                                                                                                                              
  3.750000E+02  1.250000E+02 -4.725000E+03  9.747001E-07  1.724321E-14  2.676471E-17  9.747001E-07  5.417914E-09  9.583732E-17  1.487576E-19  5.417914E-09  0.000000E+00  0.000000E+00  0.000000E+00  0.000000E+00  0.000000E+00  0.000000E+00  0.000000E+00  0.000000E+00  1.068176E+00  1.504945E-08  2.303950E-11  1.068176E+00                                                                                                                                                                                                                                                                                                                                                                                                                                                                                              
  6.250000E+02  1.250000E+02 -4.725000E+03  9.747015E-07  2.751643E-14 -2.713084E-17  9.747015E-07  5.417922E-09  1.529356E-16 -1.507926E-19  5.417922E-09  0.000000E+00  0.000000E+00  0.000000E+00  0.000000E+00  0.000000E+00  0.000000E+00  0.000000E+00  0.000000E+00  1.068177E+00  2.401469E-08 -2.396483E-11  1.068177E+00                                                                                                                                                                                                                                                                                                                                                                                                                                                                                              
  7.600000E+02  1.250000E+02 -4.725000E+03  9.747026E-07  2.075481E-14  4.170315E-17  9.747026E-07  5.417928E-09  1.153547E-16  2.317851E-19  5.417928E-09  0.000000E+00  0.000000E+00  0.000000E+00  0.000000E+00  0.000000E+00  0.000000E+00  0.000000E+00  0.000000E+00  1.068178E+00  1.812081E-08  3.705050E-11  1.068178E+00                                                                                                                                                                                                                                                                                                                                                                                                                                                                                              
  7.800000E+02  1.250000E+02 -4.725000E+03  9.747027E-07 -6.209476E-16  4.268257E-17  9.747027E-07  5.417928E-09 -3.451211E-18  2.372286E-19  5.417928E-09  0.000000E+00  0.000000E+00  0.000000E+00  0.000000E+00  0.000000E+00  0.000000E+00  0.000000E+00  0.000000E+00  1.068178E+00 -5.616836E-10  3.781787E-11  1.068178E+00                                                                                                                                                                                                                                                                                                                                                                                                                                                                                              
  8.000000E+02  1.250000E+02 -4.725000E+03  9.747026E-07 -2.134014E-14  7.146103E-17  9.747026E-07  5.417928E-09 -1.186080E-16  3.971786E-19  5.417928E-09  0.000000E+00  0.000000E+00  0.000000E+00  0.000000E+00  0.000000E+00  0.000000E+00  0.000000E+00  0.000000E+00  1.068178E+00 -1.864920E-08  6.379603E-11  1.068178E+00                                                                                                                                                                                                                                                                                                                                                                                                                                                                                              
  9.350000E+02  1.250000E+02 -4.725000E+03  9.747015E-07 -2.745057E-14  3.222017E-18  9.747015E-07  5.417922E-09 -1.525696E-16  1.790789E-20  5.417922E-09  0.000000E+00  0.000000E+00  0.000000E+00  0.000000E+00  0.000000E+00  0.000000E+00  0.000000E+00  0.000000E+00  1.068177E+00 -2.395461E-08  2.908890E-12  1.068177E+00                                                                                                                                                                                                                                                                                                                                                                                                                                                                                              
  1.185000E+03  1.250000E+02 -4.725000E+03  9.747001E-07 -1.724644E-14  1.410548E-17  9.747001E-07  5.417914E-09 -9.585528E-17  7.839788E-20  5.417914E-09  0.000000E+00  0.000000E+00  0.000000E+00  0.000000E+00  0.000000E+00  0.000000E+00  0.000000E+00  0.000000E+00  1.068176E+00 -1.505288E-08  1.160611E-11  1.068176E+00                                                                                                                                                                                                                                                                                                                                                                                                                                                                                              