Title="TOUGHREACT V3.30-OMP flowvector.tec: Liq & Gas Fluxes (kg/s/m^2), Pore Velocities (m/s), & Heat Fluxes (J/s/m2)"                                                                                                                                                                                                                                                                                                                                                                                                                                                                                                                                                                                                                                                                                                         
Variables= "X(m)"     "Y(m)"      "Z(m)"     "FluxLiq"   "FluxLiq_X"   "FluxLiq_Y"   "FluxLiq_Z"   "PorVelLiq"  "PorVelLiqX"  "PorVelLiqY"  "PorVelLiqZ"     "FluxGas"   "FluxGas_X"   "FluxGas_Y"   "FluxGas_Z"   "PorVelGas"  "PorVelGasX"  "PorVelGasY"  "PorVelGasZ"    "HeatFlux"  "HeatFlux_X"  "HeatFlux_Y"  "HeatFlux_Z"                                                                                                                                                                                                                                                                                                                                                                                                                                                                                                
Zone T= "1.00000000E+09 sec" I=     9 J=    10 K=    23 F=Point
  1.250000E+02  1.250000E+02 -5.425000E+03  3.290498E-08  8.551907E-14 -1.391135E-14  3.290498E-08  1.884432E-10  4.916626E-16 -7.997855E-17  1.884432E-10  0.000000E+00  0.000000E+00  0.000000E+00  0.000000E+00  0.000000E+00  0.000000E+00  0.000000E+00  0.000000E+00  1.262228E-01  8.746545E-08 -1.722412E-08  1.262228E-01                                                                                                                                                                                                                                                                                                                                                                                                                                                                                              
  3.750000E+02  1.250000E+02 -5.425000E+03  3.290501E-08  1.842334E-13 -1.893851E-14  3.290501E-08  1.884434E-10  1.059187E-15 -1.088805E-16  1.884434E-10  0.000000E+00  0.000000E+00  0.000000E+00  0.000000E+00  0.000000E+00  0.000000E+00  0.000000E+00  0.000000E+00  1.262229E-01  1.828784E-07 -2.160153E-08  1.262229E-01                                                                                                                                                                                                                                                                                                                                                                                                                                                                                              
  6.250000E+02  1.250000E+02 -5.425000E+03  3.290506E-08  6.516555E-14 -8.152970E-16  3.290506E-08  1.884437E-10  3.746470E-16 -4.687271E-18  1.884437E-10  0.000000E+00  0.000000E+00  0.000000E+00  0.000000E+00  0.000000E+00  0.000000E+00  0.000000E+00  0.000000E+00  1.262229E-01  6.021676E-08  2.957621E-09  1.262229E-01                                                                                                                                                                                                                                                                                                                                                                                                                                                                                              
  7.600000E+02  1.250000E+02 -5.425000E+03  3.290510E-08 -7.238891E-14 -8.308584E-15  3.290510E-08  1.884439E-10 -4.161753E-16 -4.776736E-17  1.884439E-10  0.000000E+00  0.000000E+00  0.000000E+00  0.000000E+00  0.000000E+00  0.000000E+00  0.000000E+00  0.000000E+00  1.262230E-01 -6.358194E-08 -8.799287E-09  1.262230E-01                                                                                                                                                                                                                                                                                                                                                                                                                                                                                              
  7.800000E+02  1.250000E+02 -5.425000E+03  3.290510E-08 -7.440242E-14 -6.538718E-15  3.290510E-08  1.884439E-10 -4.277512E-16 -3.759212E-17  1.884439E-10  0.000000E+00  0.000000E+00  0.000000E+00  0.000000E+00  0.000000E+00  0.000000E+00  0.000000E+00  0.000000E+00  1.262230E-01 -8.770499E-08 -7.002661E-09  1.262230E-01                                                                                                                                                                                                                                                                                                                                                                                                                                                                                              
  8.000000E+02  1.250000E+02 -5.425000E+03  3.290511E-08 -6.699080E-14 -5.129386E-15  3.290511E-08  1.884439E-10 -3.851407E-16 -2.948965E-17  1.884439E-10  0.000000E+00  0.000000E+00  0.000000E+00  0.000000E+00  0.000000E+00  0.000000E+00  0.000000E+00  0.000000E+00  1.262230E-01 -8.631424E-08 -5.658447E-09  1.262230E-01                                                                                                                                                                                                                                                                                                                                                                                                                                                                                              
  9.350000E+02  1.250000E+02 -5.425000E+03  3.290510E-08 -1.231504E-13 -2.028611E-15  3.290510E-08  1.884439E-10 -7.080113E-16 -1.166280E-17  1.884439E-10  0.000000E+00  0.000000E+00  0.000000E+00  0.000000E+00  0.000000E+00  0.000000E+00  0.000000E+00  0.000000E+00  1.262230E-01 -1.190102E-07 -2.403504E-09  1.262230E-01                                                                                                                                                                                                                                                                                                                                                                                                                                                                                              
  1.185000E+03  1.250000E+02 -5.425000E+03  3.290504E-08 -1.771548E-13  2.890411E-14  3.290504E-08  1.884435E-10 -1.018491E-15  1.661743E-16  1.884435E-10  0.000000E+00  0.000000E+00  0.000000E+00  0.000000E+00  0.000000E+00  0.000000E+00  0.000000E+00  0.000000E+00  1.262229E-01 -1.782830E-07  3.393410E-08  1.262229E-01                                                                                                                                                                                                                                                                                                                                                                                                                                                                                              
  1.435000E+03  1.250000E+02 -5.425000E+03  3.290502E-08 -8.543290E-14  3.713794E-14  3.290502E-08  1.884435E-10 -4.911672E-16  2.135119E-16  1.884435E-10  0.000000E+00  0.000000E+00  0.000000E+00  0.000000E+00  0.000000E+00  0.000000E+00  0.000000E+00  0.000000E+00  1.262229E-01 -8.626771E-08  4.059809E-08  1.262229E-01                                                                                                                                                                                                                                                                                                                                                                                                                                                                                              
  1.250000E+02  1.250000E+02 -5.225000E+03  1.305612E-07  1.035293E-13 -2.456865E-15  1.305612E-07  7.422731E-10  5.900979E-16 -1.400368E-17  7.422731E-10  0.000000E+00  0.000000E+00  0.000000E+00  0.000000E+00  0.000000E+00  0.000000E+00  0.000000E+00  0.000000E+00  3.194453E-01  1.003998E-07 -1.967900E-09  3.194453E-01                                                                                                                                                                                                                                                                                                                                                                                                                                                                                              
  3.750000E+02  1.250000E+02 -5.225000E+03  1.305613E-07  2.416345E-13 -7.690663E-15  1.305613E-07  7.422737E-10  1.377272E-15 -4.383536E-17  7.422737E-10  0.000000E+00  0.000000E+00  0.000000E+00  0.000000E+00  0.000000E+00  0.000000E+00  0.000000E+00  0.000000E+00  3.194454E-01  2.322545E-07 -7.870195E-09  3.194454E-01                                                                                                                                                                                                                                                                                                                                                                                                                                                                                              
  6.250000E+02  1.250000E+02 -5.225000E+03  1.305617E-07  1.581356E-13  5.802656E-16  1.305617E-07  7.422754E-10  9.013435E-16  3.307407E-18  7.422754E-10  0.000000E+00  0.000000E+00  0.000000E+00  0.000000E+00  0.000000E+00  0.000000E+00  0.000000E+00  0.000000E+00  3.194457E-01  1.509131E-07  1.783570E-10  3.194457E-01                                                                                                                                                                                                                                                                                                                                                                                                                                                                                              
  7.600000E+02  1.250000E+02 -5.225000E+03  1.305618E-07  1.867761E-14  1.982652E-15  1.305618E-07  7.422764E-10  1.064589E-16  1.130075E-17  7.422764E-10  0.000000E+00  0.000000E+00  0.000000E+00  0.000000E+00  0.000000E+00  0.000000E+00  0.000000E+00  0.000000E+00  3.194458E-01  1.503545E-08  2.098022E-09  3.194458E-01                                                                                                                                                                                                                                                                                                                                                                                                                                                                                              
  7.800000E+02  1.250000E+02 -5.225000E+03  1.305618E-07 -1.997159E-14  2.453495E-15  1.305618E-07  7.422765E-10 -1.138344E-16  1.398447E-17  7.422765E-10  0.000000E+00  0.000000E+00  0.000000E+00  0.000000E+00  0.000000E+00  0.000000E+00  0.000000E+00  0.000000E+00  3.194458E-01 -2.108458E-08  2.716711E-09  3.194458E-01                                                                                                                                                                                                                                                                                                                                                                                                                                                                                              
  8.000000E+02  1.250000E+02 -5.225000E+03  1.305618E-07 -5.482412E-14  3.072277E-15  1.305618E-07  7.422764E-10 -3.124873E-16  1.751141E-17  7.422764E-10  0.000000E+00  0.000000E+00  0.000000E+00  0.000000E+00  0.000000E+00  0.000000E+00  0.000000E+00  0.000000E+00  3.194458E-01 -5.172395E-08  3.071293E-09  3.194458E-01                                                                                                                                                                                                                                                                                                                                                                                                                                                                                              
  9.350000E+02  1.250000E+02 -5.225000E+03  1.305617E-07 -1.777505E-13  7.082518E-15  1.305617E-07  7.422757E-10 -1.013145E-15  4.036904E-17  7.422757E-10  0.000000E+00  0.000000E+00  0.000000E+00  0.000000E+00  0.000000E+00  0.000000E+00  0.000000E+00  0.000000E+00  3.194457E-01 -1.705757E-07  7.291282E-09  3.194457E-01                                                                                                                                                                                                                                                                                                                                                                                                                                                                                              
  1.185000E+03  1.250000E+02 -5.225000E+03  1.305614E-07 -2.360126E-13  5.210156E-15  1.305614E-07  7.422739E-10 -1.345228E-15  2.969692E-17  7.422739E-10  0.000000E+00  0.000000E+00  0.000000E+00  0.000000E+00  0.000000E+00  0.000000E+00  0.000000E+00  0.000000E+00  3.194454E-01 -2.263728E-07  5.423113E-09  3.194454E-01                                                                                                                                                                                                                                                                                                                                                                                                                                                                                              
  1.435000E+03  1.250000E+02 -5.225000E+03  1.305613E-07 -9.446746E-14  3.149739E-15  1.305613E-07  7.422733E-10 -5.384470E-16  1.795293E-17  7.422733E-10  0.000000E+00  0.000000E+00  0.000000E+00  0.000000E+00  0.000000E+00  0.000000E+00  0.000000E+00  0.000000E+00  3.194453E-01 -9.045943E-08  3.250198E-09  3.194453E-01                                                                                                                                                                                                                                                                                                                                                                                                                                                                                              
  1.250000E+02  1.250000E+02 -4.975000E+03  2.531321E-07  1.751224E-13  5.918731E-16  2.531321E-07  1.426187E-09  9.873576E-16  3.337039E-18  1.426187E-09  0.000000E+00  0.000000E+00  0.000000E+00  0.000000E+00  0.000000E+00  0.000000E+00  0.000000E+00  0.000000E+00  4.352796E-01  1.602102E-07  4.710537E-10  4.352796E-01                                                                                                                                                                                                                                                                                                                                                                                                                                                                                              
  3.750000E+02  1.250000E+02 -4.975000E+03  2.531323E-07  5.552639E-13  9.268836E-16  2.531323E-07  1.426188E-09  3.130633E-15  5.225862E-18  1.426188E-09  0.000000E+00  0.000000E+00  0.000000E+00  0.000000E+00  0.000000E+00  0.000000E+00  0.000000E+00  0.000000E+00  4.352797E-01  5.059730E-07  9.429546E-10  4.352797E-01                                                                                                                                                                                                                                                                                                                                                                                                                                                                                              
  6.250000E+02  1.250000E+02 -4.975000E+03  2.531332E-07  6.289670E-13 -2.248671E-16  2.531332E-07  1.426193E-09  3.546179E-15 -1.267823E-18  1.426193E-09  0.000000E+00  0.000000E+00  0.000000E+00  0.000000E+00  0.000000E+00  0.000000E+00  0.000000E+00  0.000000E+00  4.352803E-01  5.004006E-07 -3.025697E-11  4.352803E-01                                                                                                                                                                                                                                                                                                                                                                                                                                                                                              
  7.600000E+02  1.250000E+02 -4.975000E+03  2.531357E-07  3.327782E-13  4.933885E-16  2.531357E-07  1.426207E-09  1.876237E-15  2.781773E-18  1.426207E-09  0.000000E+00  0.000000E+00  0.000000E+00  0.000000E+00  0.000000E+00  0.000000E+00  0.000000E+00  0.000000E+00  4.352778E-01  2.067106E-07  3.346182E-10  4.352778E-01                                                                                                                                                                                                                                                                                                                                                                                                                                                                                              
  7.800000E+02  1.250000E+02 -4.975000E+03  2.531358E-07 -4.823448E-15  6.154178E-16  2.531358E-07  1.426208E-09 -2.719508E-17  3.469787E-18  1.426208E-09  0.000000E+00  0.000000E+00  0.000000E+00  0.000000E+00  0.000000E+00  0.000000E+00  0.000000E+00  0.000000E+00  4.352777E-01 -3.805408E-09  3.806686E-10  4.352777E-01                                                                                                                                                                                                                                                                                                                                                                                                                                                                                              
  8.000000E+02  1.250000E+02 -4.975000E+03  2.531357E-07 -3.425217E-13  8.807311E-16  2.531357E-07  1.426207E-09 -1.931171E-15  4.965650E-18  1.426207E-09  0.000000E+00  0.000000E+00  0.000000E+00  0.000000E+00  0.000000E+00  0.000000E+00  0.000000E+00  0.000000E+00  4.352778E-01 -2.153234E-07  6.592747E-10  4.352778E-01                                                                                                                                                                                                                                                                                                                                                                                                                                                                                              
  9.350000E+02  1.250000E+02 -4.975000E+03  2.531332E-07 -6.332216E-13  3.037485E-15  2.531332E-07  1.426193E-09 -3.570166E-15  1.712564E-17  1.426193E-09  0.000000E+00  0.000000E+00  0.000000E+00  0.000000E+00  0.000000E+00  0.000000E+00  0.000000E+00  0.000000E+00  4.352803E-01 -5.044789E-07  2.963964E-09  4.352803E-01                                                                                                                                                                                                                                                                                                                                                                                                                                                                                              
  1.185000E+03  1.250000E+02 -4.975000E+03  2.531323E-07 -5.519048E-13  2.303634E-15  2.531323E-07  1.426188E-09 -3.111694E-15  1.298812E-17  1.426188E-09  0.000000E+00  0.000000E+00  0.000000E+00  0.000000E+00  0.000000E+00  0.000000E+00  0.000000E+00  0.000000E+00  4.352797E-01 -5.026282E-07  2.119979E-09  4.352797E-01                                                                                                                                                                                                                                                                                                                                                                                                                                                                                              
  1.435000E+03  1.250000E+02 -4.975000E+03  2.531321E-07 -1.724288E-13 -9.147327E-16  2.531321E-07  1.426187E-09 -9.721707E-16 -5.157354E-18  1.426187E-09  0.000000E+00  0.000000E+00  0.000000E+00  0.000000E+00  0.000000E+00  0.000000E+00  0.000000E+00  0.000000E+00  4.352796E-01 -1.575944E-07 -1.062382E-09  4.352796E-01                                                                                                                                                                                                                                                                                                                                                                                                                                                                                              
  1.250000E+02  1.250000E+02 -4.725000E+03  3.568459E-07  2.413320E-13  1.223446E-16  3.568459E-07  1.992429E-09  1.346734E-15  6.827345E-19  1.992429E-09  0.000000E+00  0.000000E+00  0.000000E+00  0.000000E+00  0.000000E+00  0.000000E+00  0.000000E+00  0.000000E+00  5.168213E-01  2.057016E-07  2.658763E-10  5.168213E-01                                                                                                                                                                                                                                                                                                                                                                                                                                                                                              
  3.750000E+02  1.250000E+02 -4.725000E+03  3.568456E-07  1.196590E-12  4.274229E-17  3.568456E-07  1.992428E-09  6.677477E-15  2.385199E-19  1.992428E-09  0.000000E+00  0.000000E+00  0.000000E+00  0.000000E+00  0.000000E+00  0.000000E+00  0.000000E+00  0.000000E+00  5.168208E-01  7.621743E-07  2.221356E-10  5.168208E-01                                                                                                                                                                                                                                                                                                                                                                                                                                                                                              
  6.250000E+02  1.250000E+02 -4.725000E+03  3.568477E-07  4.177902E-12 -5.716839E-16  3.568477E-07  1.992441E-09  2.331445E-14 -3.190236E-18  1.992441E-09  0.000000E+00  0.000000E+00  0.000000E+00  0.000000E+00  0.000000E+00  0.000000E+00  0.000000E+00  0.000000E+00  5.168004E-01 -5.436302E-06 -3.625000E-10  5.168004E-01                                                                                                                                                                                                                                                                                                                                                                                                                                                                                              
  7.600000E+02  1.250000E+02 -4.725000E+03  3.569061E-07  4.294560E-12 -3.283787E-16  3.569061E-07  1.992784E-09  2.396545E-14 -1.832492E-18  1.992784E-09  0.000000E+00  0.000000E+00  0.000000E+00  0.000000E+00  0.000000E+00  0.000000E+00  0.000000E+00  0.000000E+00  5.164280E-01 -7.885468E-06 -1.092031E-10  5.164280E-01                                                                                                                                                                                                                                                                                                                                                                                                                                                                                              
  7.800000E+02  1.250000E+02 -4.725000E+03  3.569070E-07 -1.084479E-15 -3.110343E-16  3.569070E-07  1.992789E-09 -6.051850E-18 -1.735703E-18  1.992789E-09  0.000000E+00  0.000000E+00  0.000000E+00  0.000000E+00  0.000000E+00  0.000000E+00  0.000000E+00  0.000000E+00  5.164227E-01 -1.250980E-09 -8.751668E-11  5.164227E-01                                                                                                                                                                                                                                                                                                                                                                                                                                                                                              
  8.000000E+02  1.250000E+02 -4.725000E+03  3.569061E-07 -4.296623E-12 -3.260148E-16  3.569061E-07  1.992784E-09 -2.397697E-14 -1.819300E-18  1.992784E-09  0.000000E+00  0.000000E+00  0.000000E+00  0.000000E+00  0.000000E+00  0.000000E+00  0.000000E+00  0.000000E+00  5.164280E-01  7.883397E-06 -1.055385E-10  5.164280E-01                                                                                                                                                                                                                                                                                                                                                                                                                                                                                              
  9.350000E+02  1.250000E+02 -4.725000E+03  3.568477E-07 -4.178869E-12 -2.534119E-16  3.568477E-07  1.992441E-09 -2.331985E-14 -1.414145E-18  1.992441E-09  0.000000E+00  0.000000E+00  0.000000E+00  0.000000E+00  0.000000E+00  0.000000E+00  0.000000E+00  0.000000E+00  5.168004E-01  5.435522E-06 -9.612087E-11  5.168004E-01                                                                                                                                                                                                                                                                                                                                                                                                                                                                                              
  1.185000E+03  1.250000E+02 -4.725000E+03  3.568456E-07 -1.194785E-12  4.145681E-16  3.568456E-07  1.992428E-09 -6.667401E-15  2.313464E-18  1.992428E-09  0.000000E+00  0.000000E+00  0.000000E+00  0.000000E+00  0.000000E+00  0.000000E+00  0.000000E+00  0.000000E+00  5.168208E-01 -7.606361E-07  4.327951E-10  5.168208E-01                                                                                                                                                                                                                                                                                                                                                                                                                                                                                              