Title="TOUGHREACT V3.30-OMP flowvector.tec: Liq & Gas Fluxes (kg/s/m^2), Pore Velocities (m/s), & Heat Fluxes (J/s/m2)"                                                                                                                                                                                                                                                                                                                                                                                                                                                                                                                                                                                                                                                                                                         
Variables= "X(m)"     "Y(m)"      "Z(m)"     "FluxLiq"   "FluxLiq_X"   "FluxLiq_Y"   "FluxLiq_Z"   "PorVelLiq"  "PorVelLiqX"  "PorVelLiqY"  "PorVelLiqZ"     "FluxGas"   "FluxGas_X"   "FluxGas_Y"   "FluxGas_Z"   "PorVelGas"  "PorVelGasX"  "PorVelGasY"  "PorVelGasZ"    "HeatFlux"  "HeatFlux_X"  "HeatFlux_Y"  "HeatFlux_Z"                                                                                                                                                                                                                                                                                                                                                                                                                                                                                                
Zone T= "3.15569000E+08 sec" I=     9 J=    10 K=    23 F=Point
  1.250000E+02  1.250000E+02 -5.425000E+03  9.188961E-08  1.788737E-14  2.281274E-17  9.188961E-08  5.245870E-10  1.025326E-16  1.307654E-19  5.245870E-10  0.000000E+00  0.000000E+00  0.000000E+00  0.000000E+00  0.000000E+00  0.000000E+00  0.000000E+00  0.000000E+00  1.891654E-01  1.772911E-08  1.139575E-10  1.891654E-01                                                                                                                                                                                                                                                                                                                                                                                                                                                                                              
  3.750000E+02  1.250000E+02 -5.425000E+03  9.188962E-08  3.945001E-14  3.717006E-17  9.188962E-08  5.245871E-10  2.261322E-16  2.130633E-19  5.245871E-10  0.000000E+00  0.000000E+00  0.000000E+00  0.000000E+00  0.000000E+00  0.000000E+00  0.000000E+00  0.000000E+00  1.891654E-01  3.912415E-08 -2.412101E-10  1.891654E-01                                                                                                                                                                                                                                                                                                                                                                                                                                                                                              
  6.250000E+02  1.250000E+02 -5.425000E+03  9.188964E-08  2.417353E-14 -4.173062E-19  9.188964E-08  5.245872E-10  1.385656E-16 -2.392049E-21  5.245872E-10  0.000000E+00  0.000000E+00  0.000000E+00  0.000000E+00  0.000000E+00  0.000000E+00  0.000000E+00  0.000000E+00  1.891654E-01  2.410390E-08 -9.569238E-11  1.891654E-01                                                                                                                                                                                                                                                                                                                                                                                                                                                                                              
  7.600000E+02  1.250000E+02 -5.425000E+03  9.188964E-08  3.430844E-15  2.702554E-18  9.188964E-08  5.245872E-10  1.966601E-17  1.549137E-20  5.245872E-10  0.000000E+00  0.000000E+00  0.000000E+00  0.000000E+00  0.000000E+00  0.000000E+00  0.000000E+00  0.000000E+00  1.891654E-01  4.320895E-09 -4.926790E-12  1.891654E-01                                                                                                                                                                                                                                                                                                                                                                                                                                                                                              
  7.800000E+02  1.250000E+02 -5.425000E+03  9.188964E-08 -9.426649E-17  7.263115E-18  9.188964E-08  5.245872E-10 -5.403469E-19  4.163305E-20  5.245872E-10  0.000000E+00  0.000000E+00  0.000000E+00  0.000000E+00  0.000000E+00  0.000000E+00  0.000000E+00  0.000000E+00  1.891654E-01  1.477137E-09 -2.717623E-11  1.891654E-01                                                                                                                                                                                                                                                                                                                                                                                                                                                                                              
  8.000000E+02  1.250000E+02 -5.425000E+03  9.188964E-08 -3.489120E-15  1.052208E-17  9.188964E-08  5.245872E-10 -2.000006E-17  6.031382E-20  5.245872E-10  0.000000E+00  0.000000E+00  0.000000E+00  0.000000E+00  0.000000E+00  0.000000E+00  0.000000E+00  0.000000E+00  1.891654E-01 -2.884158E-09 -5.915835E-11  1.891654E-01                                                                                                                                                                                                                                                                                                                                                                                                                                                                                              
  9.350000E+02  1.250000E+02 -5.425000E+03  9.188964E-08 -2.412773E-14  5.097097E-18  9.188964E-08  5.245872E-10 -1.383031E-16  2.921718E-20  5.245872E-10  0.000000E+00  0.000000E+00  0.000000E+00  0.000000E+00  0.000000E+00  0.000000E+00  0.000000E+00  0.000000E+00  1.891654E-01 -2.387021E-08  1.777940E-11  1.891654E-01                                                                                                                                                                                                                                                                                                                                                                                                                                                                                              
  1.185000E+03  1.250000E+02 -5.425000E+03  9.188962E-08 -3.930164E-14  2.683676E-17  9.188962E-08  5.245871E-10 -2.252817E-16  1.538316E-19  5.245871E-10  0.000000E+00  0.000000E+00  0.000000E+00  0.000000E+00  0.000000E+00  0.000000E+00  0.000000E+00  0.000000E+00  1.891654E-01 -3.932059E-08  7.659402E-11  1.891654E-01                                                                                                                                                                                                                                                                                                                                                                                                                                                                                              
  1.435000E+03  1.250000E+02 -5.425000E+03  9.188961E-08 -1.774881E-14  1.557943E-17  9.188961E-08  5.245870E-10 -1.017383E-16  8.930318E-20  5.245870E-10  0.000000E+00  0.000000E+00  0.000000E+00  0.000000E+00  0.000000E+00  0.000000E+00  0.000000E+00  0.000000E+00  1.891654E-01 -1.819963E-08  1.298880E-10  1.891654E-01                                                                                                                                                                                                                                                                                                                                                                                                                                                                                              
  1.250000E+02  1.250000E+02 -5.225000E+03  3.424457E-07  2.473505E-14  9.997104E-18  3.424457E-07  1.941054E-09  1.405344E-16  5.679944E-20  1.941054E-09  0.000000E+00  0.000000E+00  0.000000E+00  0.000000E+00  0.000000E+00  0.000000E+00  0.000000E+00  0.000000E+00  5.295398E-01  2.375724E-08  1.306684E-11  5.295398E-01                                                                                                                                                                                                                                                                                                                                                                                                                                                                                              
  3.750000E+02  1.250000E+02 -5.225000E+03  3.424457E-07  5.734277E-14  1.878716E-18  3.424457E-07  1.941054E-09  3.257981E-16  1.067409E-20  1.941054E-09  0.000000E+00  0.000000E+00  0.000000E+00  0.000000E+00  0.000000E+00  0.000000E+00  0.000000E+00  0.000000E+00  5.295398E-01  5.506733E-08  4.945941E-12  5.295398E-01                                                                                                                                                                                                                                                                                                                                                                                                                                                                                              
  6.250000E+02  1.250000E+02 -5.225000E+03  3.424458E-07  3.778436E-14  1.226519E-18  3.424458E-07  1.941054E-09  2.146752E-16  6.968578E-21  1.941054E-09  0.000000E+00  0.000000E+00  0.000000E+00  0.000000E+00  0.000000E+00  0.000000E+00  0.000000E+00  0.000000E+00  5.295399E-01  3.629069E-08  4.715908E-12  5.295399E-01                                                                                                                                                                                                                                                                                                                                                                                                                                                                                              
  7.600000E+02  1.250000E+02 -5.225000E+03  3.424458E-07  6.934421E-15  9.821887E-18  3.424458E-07  1.941054E-09  3.939853E-17  5.580393E-20  1.941054E-09  0.000000E+00  0.000000E+00  0.000000E+00  0.000000E+00  0.000000E+00  0.000000E+00  0.000000E+00  0.000000E+00  5.295399E-01  6.700663E-09  1.571917E-11  5.295399E-01                                                                                                                                                                                                                                                                                                                                                                                                                                                                                              
  7.800000E+02  1.250000E+02 -5.225000E+03  3.424458E-07  4.088397E-17  1.144751E-17  3.424458E-07  1.941054E-09  2.322859E-19  6.504006E-20  1.941054E-09  0.000000E+00  0.000000E+00  0.000000E+00  0.000000E+00  0.000000E+00  0.000000E+00  0.000000E+00  0.000000E+00  5.295399E-01  5.436956E-11  1.216104E-11  5.295399E-01                                                                                                                                                                                                                                                                                                                                                                                                                                                                                              
  8.000000E+02  1.250000E+02 -5.225000E+03  3.424458E-07 -6.835888E-15  1.337490E-17  3.424458E-07  1.941054E-09 -3.883871E-17  7.599068E-20  1.941054E-09  0.000000E+00  0.000000E+00  0.000000E+00  0.000000E+00  0.000000E+00  0.000000E+00  0.000000E+00  0.000000E+00  5.295399E-01 -6.595688E-09  1.417171E-11  5.295399E-01                                                                                                                                                                                                                                                                                                                                                                                                                                                                                              
  9.350000E+02  1.250000E+02 -5.225000E+03  3.424458E-07 -3.766483E-14  2.116232E-17  3.424458E-07  1.941054E-09 -2.139961E-16  1.202356E-19  1.941054E-09  0.000000E+00  0.000000E+00  0.000000E+00  0.000000E+00  0.000000E+00  0.000000E+00  0.000000E+00  0.000000E+00  5.295399E-01 -3.617617E-08  1.806057E-11  5.295399E-01                                                                                                                                                                                                                                                                                                                                                                                                                                                                                              
  1.185000E+03  1.250000E+02 -5.225000E+03  3.424457E-07 -5.727378E-14  2.725598E-19  3.424457E-07  1.941054E-09 -3.254061E-16  1.548573E-21  1.941054E-09  0.000000E+00  0.000000E+00  0.000000E+00  0.000000E+00  0.000000E+00  0.000000E+00  0.000000E+00  0.000000E+00  5.295398E-01 -5.500570E-08  1.404112E-11  5.295398E-01                                                                                                                                                                                                                                                                                                                                                                                                                                                                                              
  1.435000E+03  1.250000E+02 -5.225000E+03  3.424457E-07 -2.472795E-14  1.826151E-17  3.424457E-07  1.941054E-09 -1.404941E-16  1.037544E-19  1.941054E-09  0.000000E+00  0.000000E+00  0.000000E+00  0.000000E+00  0.000000E+00  0.000000E+00  0.000000E+00  0.000000E+00  5.295398E-01 -2.375953E-08  8.540436E-12  5.295398E-01                                                                                                                                                                                                                                                                                                                                                                                                                                                                                              
  1.250000E+02  1.250000E+02 -4.975000E+03  6.346441E-07  5.103165E-14 -1.393064E-17  6.346441E-07  3.565757E-09  2.869328E-16 -7.832703E-20  3.565757E-09  0.000000E+00  0.000000E+00  0.000000E+00  0.000000E+00  0.000000E+00  0.000000E+00  0.000000E+00  0.000000E+00  7.921402E-01  4.672182E-08 -5.368863E-11  7.921402E-01                                                                                                                                                                                                                                                                                                                                                                                                                                                                                              
  3.750000E+02  1.250000E+02 -4.975000E+03  6.346442E-07  1.345548E-13  1.428056E-18  6.346442E-07  3.565757E-09  7.565538E-16  8.029452E-21  3.565757E-09  0.000000E+00  0.000000E+00  0.000000E+00  0.000000E+00  0.000000E+00  0.000000E+00  0.000000E+00  0.000000E+00  7.921403E-01  1.232362E-07  8.780857E-12  7.921403E-01                                                                                                                                                                                                                                                                                                                                                                                                                                                                                              
  6.250000E+02  1.250000E+02 -4.975000E+03  6.346444E-07  1.197909E-13  3.716729E-18  6.346444E-07  3.565758E-09  6.735415E-16  2.089784E-20  3.565758E-09  0.000000E+00  0.000000E+00  0.000000E+00  0.000000E+00  0.000000E+00  0.000000E+00  0.000000E+00  0.000000E+00  7.921405E-01  1.083004E-07  4.077768E-11  7.921405E-01                                                                                                                                                                                                                                                                                                                                                                                                                                                                                              
  7.600000E+02  1.250000E+02 -4.975000E+03  6.346447E-07  4.874076E-14 -3.527583E-18  6.346447E-07  3.565760E-09  2.740519E-16 -1.983434E-20  3.565760E-09  0.000000E+00  0.000000E+00  0.000000E+00  0.000000E+00  0.000000E+00  0.000000E+00  0.000000E+00  0.000000E+00  7.921404E-01  4.273504E-08 -5.244675E-12  7.921404E-01                                                                                                                                                                                                                                                                                                                                                                                                                                                                                              
  7.800000E+02  1.250000E+02 -4.975000E+03  6.346447E-07  1.059221E-16 -4.955639E-18  6.346447E-07  3.565760E-09  5.955620E-19 -2.786379E-20  3.565760E-09  0.000000E+00  0.000000E+00  0.000000E+00  0.000000E+00  0.000000E+00  0.000000E+00  0.000000E+00  0.000000E+00  7.921404E-01  1.644819E-10 -1.108531E-11  7.921404E-01                                                                                                                                                                                                                                                                                                                                                                                                                                                                                              
  8.000000E+02  1.250000E+02 -4.975000E+03  6.346447E-07 -4.852426E-14 -7.641520E-18  6.346447E-07  3.565760E-09 -2.728346E-16 -4.296554E-20  3.565760E-09  0.000000E+00  0.000000E+00  0.000000E+00  0.000000E+00  0.000000E+00  0.000000E+00  0.000000E+00  0.000000E+00  7.921404E-01 -4.246924E-08 -1.380728E-11  7.921404E-01                                                                                                                                                                                                                                                                                                                                                                                                                                                                                              
  9.350000E+02  1.250000E+02 -4.975000E+03  6.346444E-07 -1.196698E-13 -3.258995E-17  6.346444E-07  3.565758E-09 -6.728604E-16 -1.832417E-19  3.565758E-09  0.000000E+00  0.000000E+00  0.000000E+00  0.000000E+00  0.000000E+00  0.000000E+00  0.000000E+00  0.000000E+00  7.921405E-01 -1.082066E-07 -2.065264E-12  7.921405E-01                                                                                                                                                                                                                                                                                                                                                                                                                                                                                              
  1.185000E+03  1.250000E+02 -4.975000E+03  6.346442E-07 -1.345397E-13  5.750055E-18  6.346442E-07  3.565757E-09 -7.564686E-16  3.233051E-20  3.565757E-09  0.000000E+00  0.000000E+00  0.000000E+00  0.000000E+00  0.000000E+00  0.000000E+00  0.000000E+00  0.000000E+00  7.921403E-01 -1.232784E-07 -7.384670E-12  7.921403E-01                                                                                                                                                                                                                                                                                                                                                                                                                                                                                              
  1.435000E+03  1.250000E+02 -4.975000E+03  6.346441E-07 -5.102705E-14 -1.769466E-17  6.346441E-07  3.565757E-09 -2.869069E-16 -9.949075E-20  3.565757E-09  0.000000E+00  0.000000E+00  0.000000E+00  0.000000E+00  0.000000E+00  0.000000E+00  0.000000E+00  0.000000E+00  7.921402E-01 -4.675652E-08  3.276967E-12  7.921402E-01                                                                                                                                                                                                                                                                                                                                                                                                                                                                                              
  1.250000E+02  1.250000E+02 -4.725000E+03  8.620639E-07  9.745917E-14 -7.541482E-17  8.620639E-07  4.802560E-09  5.427532E-16 -4.199875E-19  4.802560E-09  0.000000E+00  0.000000E+00  0.000000E+00  0.000000E+00  0.000000E+00  0.000000E+00  0.000000E+00  0.000000E+00  9.681707E-01  8.509655E-08 -9.949704E-14  9.681707E-01                                                                                                                                                                                                                                                                                                                                                                                                                                                                                              
  3.750000E+02  1.250000E+02 -4.725000E+03  8.620640E-07  3.176379E-13 -7.253925E-17  8.620640E-07  4.802561E-09  1.768936E-15 -4.039734E-19  4.802561E-09  0.000000E+00  0.000000E+00  0.000000E+00  0.000000E+00  0.000000E+00  0.000000E+00  0.000000E+00  0.000000E+00  9.681708E-01  2.721744E-07 -2.044282E-11  9.681708E-01                                                                                                                                                                                                                                                                                                                                                                                                                                                                                              
  6.250000E+02  1.250000E+02 -4.725000E+03  8.620643E-07  7.109366E-13 -5.825302E-17  8.620643E-07  4.802563E-09  3.959229E-15 -3.244130E-19  4.802563E-09  0.000000E+00  0.000000E+00  0.000000E+00  0.000000E+00  0.000000E+00  0.000000E+00  0.000000E+00  0.000000E+00  9.681698E-01  6.709742E-08 -1.157712E-11  9.681698E-01                                                                                                                                                                                                                                                                                                                                                                                                                                                                                              
  7.600000E+02  1.250000E+02 -4.725000E+03  8.620749E-07  6.642707E-13 -6.404994E-17  8.620749E-07  4.802630E-09  3.699345E-15 -3.566962E-19  4.802630E-09  0.000000E+00  0.000000E+00  0.000000E+00  0.000000E+00  0.000000E+00  0.000000E+00  0.000000E+00  0.000000E+00  9.680968E-01 -1.818084E-07 -1.751956E-11  9.680968E-01                                                                                                                                                                                                                                                                                                                                                                                                                                                                                              
  7.800000E+02  1.250000E+02 -4.725000E+03  8.620756E-07  3.605900E-17 -6.495657E-17  8.620756E-07  4.802635E-09  2.008137E-19 -3.617452E-19  4.802635E-09  0.000000E+00  0.000000E+00  0.000000E+00  0.000000E+00  0.000000E+00  0.000000E+00  0.000000E+00  0.000000E+00  9.680916E-01 -1.142220E-10 -1.311179E-11  9.680916E-01                                                                                                                                                                                                                                                                                                                                                                                                                                                                                              
  8.000000E+02  1.250000E+02 -4.725000E+03  8.620749E-07 -6.641953E-13 -6.667824E-17  8.620749E-07  4.802630E-09 -3.698925E-15 -3.713333E-19  4.802630E-09  0.000000E+00  0.000000E+00  0.000000E+00  0.000000E+00  0.000000E+00  0.000000E+00  0.000000E+00  0.000000E+00  9.680968E-01  1.817005E-07 -7.601709E-12  9.680968E-01                                                                                                                                                                                                                                                                                                                                                                                                                                                                                              
  9.350000E+02  1.250000E+02 -4.725000E+03  8.620643E-07 -7.108878E-13 -8.541518E-17  8.620643E-07  4.802563E-09 -3.958957E-15 -4.756799E-19  4.802563E-09  0.000000E+00  0.000000E+00  0.000000E+00  0.000000E+00  0.000000E+00  0.000000E+00  0.000000E+00  0.000000E+00  9.681698E-01 -6.708040E-08  1.574041E-11  9.681698E-01                                                                                                                                                                                                                                                                                                                                                                                                                                                                                              
  1.185000E+03  1.250000E+02 -4.725000E+03  8.620640E-07 -3.176433E-13 -5.188832E-17  8.620640E-07  4.802561E-09 -1.768966E-15 -2.889678E-19  4.802561E-09  0.000000E+00  0.000000E+00  0.000000E+00  0.000000E+00  0.000000E+00  0.000000E+00  0.000000E+00  0.000000E+00  9.681708E-01 -2.721593E-07 -7.069485E-13  9.681708E-01                                                                                                                                                                                                                                                                                                                                                                                                                                                                                              