Title="TOUGHREACT V3.30-OMP flowvector.tec: Liq & Gas Fluxes (kg/s/m^2), Pore Velocities (m/s), & Heat Fluxes (J/s/m2)"                                                                                                                                                                                                                                                                                                                                                                                                                                                                                                                                                                                                                                                                                                         
Variables= "X(m)"     "Y(m)"      "Z(m)"     "FluxLiq"   "FluxLiq_X"   "FluxLiq_Y"   "FluxLiq_Z"   "PorVelLiq"  "PorVelLiqX"  "PorVelLiqY"  "PorVelLiqZ"     "FluxGas"   "FluxGas_X"   "FluxGas_Y"   "FluxGas_Z"   "PorVelGas"  "PorVelGasX"  "PorVelGasY"  "PorVelGasZ"    "HeatFlux"  "HeatFlux_X"  "HeatFlux_Y"  "HeatFlux_Z"                                                                                                                                                                                                                                                                                                                                                                                                                                                                                                
Zone T= "2.00000000E+11 sec" I=     9 J=    10 K=    23 F=Point
  1.250000E+02  1.250000E+02 -5.425000E+03  8.111644E-10 -5.317166E-12  1.909579E-15 -8.111469E-10  4.558045E-12 -2.990842E-14  1.074116E-17 -4.557946E-12  0.000000E+00  0.000000E+00  0.000000E+00  0.000000E+00  0.000000E+00  0.000000E+00  0.000000E+00  0.000000E+00  1.278053E-02  3.605713E-06 -3.913026E-10  1.278053E-02                                                                                                                                                                                                                                                                                                                                                                                                                                                                                              
  3.750000E+02  1.250000E+02 -5.425000E+03  8.139928E-10 -1.134662E-11  4.682078E-16 -8.139137E-10  4.573934E-12 -6.382333E-14  2.633612E-18 -4.573488E-12  0.000000E+00  0.000000E+00  0.000000E+00  0.000000E+00  0.000000E+00  0.000000E+00  0.000000E+00  0.000000E+00  1.278235E-02  7.779186E-06  1.129190E-09  1.278235E-02                                                                                                                                                                                                                                                                                                                                                                                                                                                                                              
  6.250000E+02  1.250000E+02 -5.425000E+03  8.175671E-10 -6.723836E-12 -1.017539E-15 -8.175394E-10  4.594012E-12 -3.782074E-14 -5.723525E-18 -4.593856E-12  0.000000E+00  0.000000E+00  0.000000E+00  0.000000E+00  0.000000E+00  0.000000E+00  0.000000E+00  0.000000E+00  1.278487E-02  4.651400E-06 -2.884274E-09  1.278487E-02                                                                                                                                                                                                                                                                                                                                                                                                                                                                                              
  7.600000E+02  1.250000E+02 -5.425000E+03  8.177911E-10 -9.271919E-13 -3.395293E-17 -8.177906E-10  4.595270E-12 -5.215336E-15 -1.909809E-19 -4.595267E-12  0.000000E+00  0.000000E+00  0.000000E+00  0.000000E+00  0.000000E+00  0.000000E+00  0.000000E+00  0.000000E+00  1.278505E-02  6.355978E-07 -9.872176E-10  1.278505E-02                                                                                                                                                                                                                                                                                                                                                                                                                                                                                              
  7.800000E+02  1.250000E+02 -5.425000E+03  8.178031E-10 -3.101496E-15  3.274690E-17 -8.178031E-10  4.595337E-12 -1.744552E-17  1.841971E-19 -4.595337E-12  0.000000E+00  0.000000E+00  0.000000E+00  0.000000E+00  0.000000E+00  0.000000E+00  0.000000E+00  0.000000E+00  1.278506E-02 -1.609951E-09 -5.765394E-10  1.278506E-02                                                                                                                                                                                                                                                                                                                                                                                                                                                                                              
  8.000000E+02  1.250000E+02 -5.425000E+03  8.177909E-10  9.224258E-13 -2.159804E-17 -8.177904E-10  4.595269E-12  5.188527E-15 -1.214862E-19 -4.595266E-12  0.000000E+00  0.000000E+00  0.000000E+00  0.000000E+00  0.000000E+00  0.000000E+00  0.000000E+00  0.000000E+00  1.278505E-02 -6.433173E-07 -9.757350E-10  1.278505E-02                                                                                                                                                                                                                                                                                                                                                                                                                                                                                              
  9.350000E+02  1.250000E+02 -5.425000E+03  8.175645E-10  6.722630E-12 -1.226679E-15 -8.175368E-10  4.593997E-12  3.781395E-14 -6.899912E-18 -4.593841E-12  0.000000E+00  0.000000E+00  0.000000E+00  0.000000E+00  0.000000E+00  0.000000E+00  0.000000E+00  0.000000E+00  1.278487E-02 -4.653760E-06  5.572924E-10  1.278487E-02                                                                                                                                                                                                                                                                                                                                                                                                                                                                                              
  1.185000E+03  1.250000E+02 -5.425000E+03  8.139968E-10  1.134617E-11 -1.621360E-15 -8.139177E-10  4.573956E-12  6.382080E-14 -9.119950E-18 -4.573511E-12  0.000000E+00  0.000000E+00  0.000000E+00  0.000000E+00  0.000000E+00  0.000000E+00  0.000000E+00  0.000000E+00  1.278235E-02 -7.777201E-06 -4.545083E-10  1.278234E-02                                                                                                                                                                                                                                                                                                                                                                                                                                                                                              
  1.435000E+03  1.250000E+02 -5.425000E+03  8.111670E-10  5.316259E-12  1.321945E-15 -8.111496E-10  4.558060E-12  2.990332E-14  7.435786E-18 -4.557962E-12  0.000000E+00  0.000000E+00  0.000000E+00  0.000000E+00  0.000000E+00  0.000000E+00  0.000000E+00  0.000000E+00  1.278052E-02 -3.607478E-06  1.097874E-09  1.278052E-02                                                                                                                                                                                                                                                                                                                                                                                                                                                                                              
  1.250000E+02  1.250000E+02 -5.225000E+03  2.903717E-09 -5.126664E-12  6.473614E-16 -2.903712E-09  1.628806E-11 -2.880674E-14  3.637528E-18 -1.628803E-11  0.000000E+00  0.000000E+00  0.000000E+00  0.000000E+00  0.000000E+00  0.000000E+00  0.000000E+00  0.000000E+00  4.607512E-02  7.207449E-06 -1.702065E-09  4.607512E-02                                                                                                                                                                                                                                                                                                                                                                                                                                                                                              
  3.750000E+02  1.250000E+02 -5.225000E+03  2.913387E-09 -1.122740E-11  4.448444E-16 -2.913365E-09  1.634227E-11 -6.308673E-14  2.499580E-18 -1.634215E-11  0.000000E+00  0.000000E+00  0.000000E+00  0.000000E+00  0.000000E+00  0.000000E+00  0.000000E+00  0.000000E+00  4.608422E-02  1.590995E-05 -2.305392E-09  4.608422E-02                                                                                                                                                                                                                                                                                                                                                                                                                                                                                              
  6.250000E+02  1.250000E+02 -5.225000E+03  2.926908E-09 -6.832526E-12  2.888378E-15 -2.926900E-09  1.641808E-11 -3.839192E-14  1.622977E-17 -1.641803E-11  0.000000E+00  0.000000E+00  0.000000E+00  0.000000E+00  0.000000E+00  0.000000E+00  0.000000E+00  0.000000E+00  4.609796E-02  9.756107E-06  8.432936E-10  4.609796E-02                                                                                                                                                                                                                                                                                                                                                                                                                                                                                              
  7.600000E+02  1.250000E+02 -5.225000E+03  2.928143E-09 -9.783972E-13  1.527375E-15 -2.928142E-09  1.642500E-11 -5.497604E-15  8.582302E-18 -1.642500E-11  0.000000E+00  0.000000E+00  0.000000E+00  0.000000E+00  0.000000E+00  0.000000E+00  0.000000E+00  0.000000E+00  4.609941E-02  1.401406E-06 -1.943378E-10  4.609941E-02                                                                                                                                                                                                                                                                                                                                                                                                                                                                                              
  7.800000E+02  1.250000E+02 -5.225000E+03  2.928205E-09 -1.570249E-15  1.721115E-15 -2.928205E-09  1.642535E-11 -8.823215E-18  9.670925E-18 -1.642535E-11  0.000000E+00  0.000000E+00  0.000000E+00  0.000000E+00  0.000000E+00  0.000000E+00  0.000000E+00  0.000000E+00  4.609948E-02 -1.136057E-08  1.451026E-10  4.609948E-02                                                                                                                                                                                                                                                                                                                                                                                                                                                                                              
  8.000000E+02  1.250000E+02 -5.225000E+03  2.928143E-09  9.777180E-13  2.073850E-15 -2.928142E-09  1.642500E-11  5.493787E-15  1.165294E-17 -1.642500E-11  0.000000E+00  0.000000E+00  0.000000E+00  0.000000E+00  0.000000E+00  0.000000E+00  0.000000E+00  0.000000E+00  4.609941E-02 -1.414960E-06  8.287120E-10  4.609941E-02                                                                                                                                                                                                                                                                                                                                                                                                                                                                                              
  9.350000E+02  1.250000E+02 -5.225000E+03  2.926909E-09  6.828863E-12  5.063145E-15 -2.926901E-09  1.641809E-11  3.837134E-14  2.844976E-17 -1.641804E-11  0.000000E+00  0.000000E+00  0.000000E+00  0.000000E+00  0.000000E+00  0.000000E+00  0.000000E+00  0.000000E+00  4.609796E-02 -9.763094E-06  3.365980E-09  4.609796E-02                                                                                                                                                                                                                                                                                                                                                                                                                                                                                              
  1.185000E+03  1.250000E+02 -5.225000E+03  2.913394E-09  1.122321E-11  1.241811E-15 -2.913373E-09  1.634232E-11  6.306321E-14  6.977731E-18 -1.634219E-11  0.000000E+00  0.000000E+00  0.000000E+00  0.000000E+00  0.000000E+00  0.000000E+00  0.000000E+00  0.000000E+00  4.608422E-02 -1.591197E-05 -5.250574E-10  4.608421E-02                                                                                                                                                                                                                                                                                                                                                                                                                                                                                              
  1.435000E+03  1.250000E+02 -5.225000E+03  2.903722E-09  5.127033E-12 -3.411486E-15 -2.903718E-09  1.628809E-11  2.880881E-14 -1.916916E-17 -1.628806E-11  0.000000E+00  0.000000E+00  0.000000E+00  0.000000E+00  0.000000E+00  0.000000E+00  0.000000E+00  0.000000E+00  4.607511E-02 -7.204679E-06 -4.939307E-09  4.607511E-02                                                                                                                                                                                                                                                                                                                                                                                                                                                                                              
  1.250000E+02  1.250000E+02 -4.975000E+03  5.250566E-09 -6.594309E-12 -5.158844E-16 -5.250562E-09  2.935265E-11 -3.692035E-14 -2.888348E-18 -2.935263E-11  0.000000E+00  0.000000E+00  0.000000E+00  0.000000E+00  0.000000E+00  0.000000E+00  0.000000E+00  0.000000E+00  8.465678E-02  1.922419E-05 -6.480240E-10  8.465678E-02                                                                                                                                                                                                                                                                                                                                                                                                                                                                                              
  3.750000E+02  1.250000E+02 -4.975000E+03  5.268488E-09 -1.553086E-11 -3.262493E-15 -5.268466E-09  2.945275E-11 -8.695432E-14 -1.826609E-17 -2.945262E-11  0.000000E+00  0.000000E+00  0.000000E+00  0.000000E+00  0.000000E+00  0.000000E+00  0.000000E+00  0.000000E+00  8.468234E-02  4.533214E-05 -1.709789E-09  8.468233E-02                                                                                                                                                                                                                                                                                                                                                                                                                                                                                              
  6.250000E+02  1.250000E+02 -4.975000E+03  5.297884E-09 -1.042962E-11  1.208403E-16 -5.297873E-09  2.961689E-11 -5.839337E-14  6.765598E-19 -2.961683E-11  0.000000E+00  0.000000E+00  0.000000E+00  0.000000E+00  0.000000E+00  0.000000E+00  0.000000E+00  0.000000E+00  8.473125E-02  3.042368E-05 -5.934898E-10  8.473125E-02                                                                                                                                                                                                                                                                                                                                                                                                                                                                                              
  7.600000E+02  1.250000E+02 -4.975000E+03  5.304711E-09 -1.999333E-12  1.473323E-15 -5.304710E-09  2.965498E-11 -1.119385E-14  8.248827E-18 -2.965498E-11  0.000000E+00  0.000000E+00  0.000000E+00  0.000000E+00  0.000000E+00  0.000000E+00  0.000000E+00  0.000000E+00  8.474751E-02  5.766799E-06  8.609260E-11  8.474751E-02                                                                                                                                                                                                                                                                                                                                                                                                                                                                                              
  7.800000E+02  1.250000E+02 -4.975000E+03  5.305057E-09 -6.987280E-15  1.653061E-15 -5.305057E-09  2.965692E-11 -3.912031E-17  9.255141E-18 -2.965692E-11  0.000000E+00  0.000000E+00  0.000000E+00  0.000000E+00  0.000000E+00  0.000000E+00  0.000000E+00  0.000000E+00  8.474833E-02 -1.206587E-08  4.436570E-10  8.474833E-02                                                                                                                                                                                                                                                                                                                                                                                                                                                                                              
  8.000000E+02  1.250000E+02 -4.975000E+03  5.304711E-09  1.985423E-12  1.790598E-15 -5.304710E-09  2.965498E-11  1.111597E-14  1.002518E-17 -2.965498E-11  0.000000E+00  0.000000E+00  0.000000E+00  0.000000E+00  0.000000E+00  0.000000E+00  0.000000E+00  0.000000E+00  8.474751E-02 -5.786803E-06  5.397935E-10  8.474751E-02                                                                                                                                                                                                                                                                                                                                                                                                                                                                                              
  9.350000E+02  1.250000E+02 -4.975000E+03  5.297887E-09  1.041889E-11  2.282205E-15 -5.297877E-09  2.961691E-11  5.833330E-14  1.277759E-17 -2.961685E-11  0.000000E+00  0.000000E+00  0.000000E+00  0.000000E+00  0.000000E+00  0.000000E+00  0.000000E+00  0.000000E+00  8.473125E-02 -3.043305E-05  2.353528E-09  8.473125E-02                                                                                                                                                                                                                                                                                                                                                                                                                                                                                              
  1.185000E+03  1.250000E+02 -4.975000E+03  5.268485E-09  1.552846E-11  1.179687E-15 -5.268463E-09  2.945273E-11  8.694088E-14  6.604847E-18 -2.945260E-11  0.000000E+00  0.000000E+00  0.000000E+00  0.000000E+00  0.000000E+00  0.000000E+00  0.000000E+00  0.000000E+00  8.468234E-02 -4.533251E-05 -2.090812E-09  8.468233E-02                                                                                                                                                                                                                                                                                                                                                                                                                                                                                              
  1.435000E+03  1.250000E+02 -4.975000E+03  5.250561E-09  6.595714E-12 -2.378766E-15 -5.250557E-09  2.935263E-11  3.692821E-14 -1.331830E-17 -2.935260E-11  0.000000E+00  0.000000E+00  0.000000E+00  0.000000E+00  0.000000E+00  0.000000E+00  0.000000E+00  0.000000E+00  8.465679E-02 -1.922313E-05 -1.872223E-09  8.465679E-02                                                                                                                                                                                                                                                                                                                                                                                                                                                                                              
  1.250000E+02  1.250000E+02 -4.725000E+03  7.092616E-09 -6.546146E-12  1.773440E-15 -7.092613E-09  3.946899E-11 -3.644863E-14  9.874459E-18 -3.946897E-11  0.000000E+00  0.000000E+00  0.000000E+00  0.000000E+00  0.000000E+00  0.000000E+00  0.000000E+00  0.000000E+00  1.174199E-01  4.687026E-05  1.312088E-09  1.174199E-01                                                                                                                                                                                                                                                                                                                                                                                                                                                                                              
  3.750000E+02  1.250000E+02 -4.725000E+03  7.116377E-09 -1.762241E-11  1.042054E-15 -7.116356E-09  3.960101E-11 -9.812031E-14  5.802092E-18 -3.960089E-11  0.000000E+00  0.000000E+00  0.000000E+00  0.000000E+00  0.000000E+00  0.000000E+00  0.000000E+00  0.000000E+00  1.174681E-01  1.253407E-04  1.502919E-09  1.174680E-01                                                                                                                                                                                                                                                                                                                                                                                                                                                                                              
  6.250000E+02  1.250000E+02 -4.725000E+03  7.164852E-09 -1.661087E-11 -2.916984E-16 -7.164833E-09  3.987029E-11 -9.248769E-14 -1.624143E-18 -3.987019E-11  0.000000E+00  0.000000E+00  0.000000E+00  0.000000E+00  0.000000E+00  0.000000E+00  0.000000E+00  0.000000E+00  1.176084E-01  1.162392E-04  2.437923E-10  1.176083E-01                                                                                                                                                                                                                                                                                                                                                                                                                                                                                              
  7.600000E+02  1.250000E+02 -4.725000E+03  7.216268E-09 -7.431784E-12 -1.493721E-16 -7.216264E-09  4.015561E-11 -4.137927E-14 -8.316848E-19 -4.015559E-11  0.000000E+00  0.000000E+00  0.000000E+00  0.000000E+00  0.000000E+00  0.000000E+00  0.000000E+00  0.000000E+00  1.179060E-01  5.070565E-05 -8.802009E-10  1.179059E-01                                                                                                                                                                                                                                                                                                                                                                                                                                                                                              
  7.800000E+02  1.250000E+02 -4.725000E+03  7.218764E-09 -5.055870E-15 -7.601538E-17 -7.218764E-09  4.016946E-11 -2.815044E-17 -4.232439E-19 -4.016946E-11  0.000000E+00  0.000000E+00  0.000000E+00  0.000000E+00  0.000000E+00  0.000000E+00  0.000000E+00  0.000000E+00  1.179203E-01  3.799235E-09 -1.053147E-09  1.179203E-01                                                                                                                                                                                                                                                                                                                                                                                                                                                                                              
  8.000000E+02  1.250000E+02 -4.725000E+03  7.216267E-09  7.420382E-12  7.716635E-17 -7.216264E-09  4.015560E-11  4.131578E-14  4.296525E-19 -4.015558E-11  0.000000E+00  0.000000E+00  0.000000E+00  0.000000E+00  0.000000E+00  0.000000E+00  0.000000E+00  0.000000E+00  1.179060E-01 -5.070496E-05 -1.276861E-09  1.179059E-01                                                                                                                                                                                                                                                                                                                                                                                                                                                                                              
  9.350000E+02  1.250000E+02 -4.725000E+03  7.164845E-09  1.660705E-11  1.457493E-15 -7.164826E-09  3.987025E-11  9.246643E-14  8.115154E-18 -3.987015E-11  0.000000E+00  0.000000E+00  0.000000E+00  0.000000E+00  0.000000E+00  0.000000E+00  0.000000E+00  0.000000E+00  1.176084E-01 -1.162419E-04  3.520120E-10  1.176084E-01                                                                                                                                                                                                                                                                                                                                                                                                                                                                                              
  1.185000E+03  1.250000E+02 -4.725000E+03  7.116368E-09  1.762706E-11  1.058909E-16 -7.116346E-09  3.960096E-11  9.814619E-14  5.895936E-19 -3.960084E-11  0.000000E+00  0.000000E+00  0.000000E+00  0.000000E+00  0.000000E+00  0.000000E+00  0.000000E+00  0.000000E+00  1.174681E-01 -1.253393E-04 -4.741972E-10  1.174680E-01                                                                                                                                                                                                                                                                                                                                                                                                                                                                                              