Title="TOUGHREACT V3.30-OMP flowvector.tec: Liq & Gas Fluxes (kg/s/m^2), Pore Velocities (m/s), & Heat Fluxes (J/s/m2)"                                                                                                                                                                                                                                                                                                                                                                                                                                                                                                                                                                                                                                                                                                         
Variables= "X(m)"     "Y(m)"      "Z(m)"     "FluxLiq"   "FluxLiq_X"   "FluxLiq_Y"   "FluxLiq_Z"   "PorVelLiq"  "PorVelLiqX"  "PorVelLiqY"  "PorVelLiqZ"     "FluxGas"   "FluxGas_X"   "FluxGas_Y"   "FluxGas_Z"   "PorVelGas"  "PorVelGasX"  "PorVelGasY"  "PorVelGasZ"    "HeatFlux"  "HeatFlux_X"  "HeatFlux_Y"  "HeatFlux_Z"                                                                                                                                                                                                                                                                                                                                                                                                                                                                                                
Zone T= "1.00000000E+06 sec" I=     9 J=    10 K=    23 F=Point
  1.250000E+02  1.250000E+02 -5.425000E+03  4.632717E-07 -5.040692E-16 -3.550662E-15  4.632717E-07  2.635997E-09 -2.879858E-18 -2.028571E-17  2.635997E-09  0.000000E+00  0.000000E+00  0.000000E+00  0.000000E+00  0.000000E+00  0.000000E+00  0.000000E+00  0.000000E+00  5.614742E-01 -5.265987E-10 -3.621365E-09  5.614742E-01                                                                                                                                                                                                                                                                                                                                                                                                                                                                                              
  3.750000E+02  1.250000E+02 -5.425000E+03  4.632717E-07 -3.268897E-15 -4.856536E-15  4.632717E-07  2.635997E-09 -1.867592E-17 -2.774646E-17  2.635997E-09  0.000000E+00  0.000000E+00  0.000000E+00  0.000000E+00  0.000000E+00  0.000000E+00  0.000000E+00  0.000000E+00  5.614742E-01 -3.347981E-09 -4.950871E-09  5.614742E-01                                                                                                                                                                                                                                                                                                                                                                                                                                                                                              
  6.250000E+02  1.250000E+02 -5.425000E+03  4.632717E-07 -1.702492E-15  2.997520E-15  4.632717E-07  2.635997E-09 -9.726707E-18  1.712549E-17  2.635997E-09  0.000000E+00  0.000000E+00  0.000000E+00  0.000000E+00  0.000000E+00  0.000000E+00  0.000000E+00  0.000000E+00  5.614742E-01 -1.678800E-09  3.071977E-09  5.614742E-01                                                                                                                                                                                                                                                                                                                                                                                                                                                                                              
  7.600000E+02  1.250000E+02 -5.425000E+03  4.632717E-07 -1.115834E-15 -1.475966E-16  4.632717E-07  2.635997E-09 -6.375006E-18 -8.432520E-19  2.635997E-09  0.000000E+00  0.000000E+00  0.000000E+00  0.000000E+00  0.000000E+00  0.000000E+00  0.000000E+00  0.000000E+00  5.614742E-01 -2.123474E-09 -1.928458E-10  5.614742E-01                                                                                                                                                                                                                                                                                                                                                                                                                                                                                              
  7.800000E+02  1.250000E+02 -5.425000E+03  4.632717E-07  1.198993E-14  4.506261E-16  4.632717E-07  2.635997E-09  6.850110E-17  2.574526E-18  2.635997E-09  0.000000E+00  0.000000E+00  0.000000E+00  0.000000E+00  0.000000E+00  0.000000E+00  0.000000E+00  0.000000E+00  5.614742E-01  1.244845E-08  5.022673E-10  5.614742E-01                                                                                                                                                                                                                                                                                                                                                                                                                                                                                              
  8.000000E+02  1.250000E+02 -5.425000E+03  4.632717E-07  1.146751E-14 -4.327687E-16  4.632717E-07  2.635997E-09  6.551641E-17 -2.472503E-18  2.635997E-09  0.000000E+00  0.000000E+00  0.000000E+00  0.000000E+00  0.000000E+00  0.000000E+00  0.000000E+00  0.000000E+00  5.614742E-01  1.288742E-08 -4.861970E-10  5.614742E-01                                                                                                                                                                                                                                                                                                                                                                                                                                                                                              
  9.350000E+02  1.250000E+02 -5.425000E+03  4.632717E-07 -2.385571E-15 -1.129048E-16  4.632717E-07  2.635997E-09 -1.362929E-17 -6.450500E-19  2.635997E-09  0.000000E+00  0.000000E+00  0.000000E+00  0.000000E+00  0.000000E+00  0.000000E+00  0.000000E+00  0.000000E+00  5.614742E-01 -2.517904E-09 -1.191713E-10  5.614742E-01                                                                                                                                                                                                                                                                                                                                                                                                                                                                                              
  1.185000E+03  1.250000E+02 -5.425000E+03  4.632717E-07  3.393888E-15 -1.601187E-15  4.632717E-07  2.635997E-09  1.939003E-17 -9.147931E-18  2.635997E-09  0.000000E+00  0.000000E+00  0.000000E+00  0.000000E+00  0.000000E+00  0.000000E+00  0.000000E+00  0.000000E+00  5.614742E-01  3.463625E-09 -1.624883E-09  5.614742E-01                                                                                                                                                                                                                                                                                                                                                                                                                                                                                              
  1.435000E+03  1.250000E+02 -5.425000E+03  4.632717E-07  3.078871E-15 -3.478309E-15  4.632717E-07  2.635997E-09  1.759027E-17 -1.987234E-17  2.635997E-09  0.000000E+00  0.000000E+00  0.000000E+00  0.000000E+00  0.000000E+00  0.000000E+00  0.000000E+00  0.000000E+00  5.614742E-01  3.154452E-09 -3.538224E-09  5.614742E-01                                                                                                                                                                                                                                                                                                                                                                                                                                                                                              
  1.250000E+02  1.250000E+02 -5.225000E+03  9.076452E-07  8.447981E-17  1.227701E-17  9.076452E-07  5.141731E-09  4.787254E-19  6.957064E-20  5.141731E-09  0.000000E+00  0.000000E+00  0.000000E+00  0.000000E+00  0.000000E+00  0.000000E+00  0.000000E+00  0.000000E+00  1.088373E+00  8.387633E-11  1.312039E-11  1.088373E+00                                                                                                                                                                                                                                                                                                                                                                                                                                                                                              
  3.750000E+02  1.250000E+02 -5.225000E+03  9.076452E-07 -4.866053E-17  9.144521E-17  9.076452E-07  5.141731E-09 -2.757467E-19  5.181965E-19  5.141731E-09  0.000000E+00  0.000000E+00  0.000000E+00  0.000000E+00  0.000000E+00  0.000000E+00  0.000000E+00  0.000000E+00  1.088373E+00 -4.772758E-11  9.102058E-11  1.088373E+00                                                                                                                                                                                                                                                                                                                                                                                                                                                                                              
  6.250000E+02  1.250000E+02 -5.225000E+03  9.076452E-07  3.971561E-17  2.587316E-16  9.076452E-07  5.141731E-09  2.250582E-19  1.466165E-18  5.141731E-09  0.000000E+00  0.000000E+00  0.000000E+00  0.000000E+00  0.000000E+00  0.000000E+00  0.000000E+00  0.000000E+00  1.088373E+00  4.387079E-11  2.550751E-10  1.088373E+00                                                                                                                                                                                                                                                                                                                                                                                                                                                                                              
  7.600000E+02  1.250000E+02 -5.225000E+03  9.076452E-07 -3.883404E-16 -1.323037E-17  9.076452E-07  5.141731E-09 -2.200625E-18 -7.497311E-20  5.141731E-09  0.000000E+00  0.000000E+00  0.000000E+00  0.000000E+00  0.000000E+00  0.000000E+00  0.000000E+00  0.000000E+00  1.088373E+00 -4.335816E-10 -1.617870E-11  1.088373E+00                                                                                                                                                                                                                                                                                                                                                                                                                                                                                              
  7.800000E+02  1.250000E+02 -5.225000E+03  9.076452E-07 -1.340061E-16  8.100684E-17  9.076452E-07  5.141731E-09 -7.593784E-19  4.590449E-19  5.141731E-09  0.000000E+00  0.000000E+00  0.000000E+00  0.000000E+00  0.000000E+00  0.000000E+00  0.000000E+00  0.000000E+00  1.088373E+00 -1.414944E-10  8.413925E-11  1.088373E+00                                                                                                                                                                                                                                                                                                                                                                                                                                                                                              
  8.000000E+02  1.250000E+02 -5.225000E+03  9.076452E-07  2.361389E-16  6.681337E-17  9.076452E-07  5.141731E-09  1.338138E-18  3.786142E-19  5.141731E-09  0.000000E+00  0.000000E+00  0.000000E+00  0.000000E+00  0.000000E+00  0.000000E+00  0.000000E+00  0.000000E+00  1.088373E+00  2.752264E-10  6.450864E-11  1.088373E+00                                                                                                                                                                                                                                                                                                                                                                                                                                                                                              
  9.350000E+02  1.250000E+02 -5.225000E+03  9.076452E-07 -9.418749E-17 -7.171639E-17  9.076452E-07  5.141731E-09 -5.337363E-19 -4.063984E-19  5.141731E-09  0.000000E+00  0.000000E+00  0.000000E+00  0.000000E+00  0.000000E+00  0.000000E+00  0.000000E+00  0.000000E+00  1.088373E+00 -9.580906E-11 -7.097418E-11  1.088373E+00                                                                                                                                                                                                                                                                                                                                                                                                                                                                                              
  1.185000E+03  1.250000E+02 -5.225000E+03  9.076452E-07  7.044200E-17  9.775882E-17  9.076452E-07  5.141731E-09  3.991767E-19  5.539741E-19  5.141731E-09  0.000000E+00  0.000000E+00  0.000000E+00  0.000000E+00  0.000000E+00  0.000000E+00  0.000000E+00  0.000000E+00  1.088373E+00  6.936479E-11  9.664538E-11  1.088373E+00                                                                                                                                                                                                                                                                                                                                                                                                                                                                                              
  1.435000E+03  1.250000E+02 -5.225000E+03  9.076452E-07 -2.642183E-17 -3.789139E-17  9.076452E-07  5.141731E-09 -1.497257E-19 -2.147208E-19  5.141731E-09  0.000000E+00  0.000000E+00  0.000000E+00  0.000000E+00  0.000000E+00  0.000000E+00  0.000000E+00  0.000000E+00  1.088373E+00 -2.716175E-11 -3.643009E-11  1.088373E+00                                                                                                                                                                                                                                                                                                                                                                                                                                                                                              
  1.250000E+02  1.250000E+02 -4.975000E+03  8.523450E-07  1.301155E-16 -1.052834E-16  8.523450E-07  4.784017E-09  7.300945E-19 -5.907586E-19  4.784017E-09  0.000000E+00  0.000000E+00  0.000000E+00  0.000000E+00  0.000000E+00  0.000000E+00  0.000000E+00  0.000000E+00  1.000778E+00  1.197014E-10 -9.964600E-11  1.000778E+00                                                                                                                                                                                                                                                                                                                                                                                                                                                                                              
  3.750000E+02  1.250000E+02 -4.975000E+03  8.523450E-07  4.075974E-16 -2.457684E-19  8.523450E-07  4.784017E-09  2.287081E-18 -1.379038E-21  4.784017E-09  0.000000E+00  0.000000E+00  0.000000E+00  0.000000E+00  0.000000E+00  0.000000E+00  0.000000E+00  0.000000E+00  1.000778E+00  3.769903E-10 -2.229560E-13  1.000778E+00                                                                                                                                                                                                                                                                                                                                                                                                                                                                                              
  6.250000E+02  1.250000E+02 -4.975000E+03  8.523451E-07  6.462220E-16  3.799957E-17  8.523451E-07  4.784017E-09  3.626035E-18  2.132205E-19  4.784017E-09  0.000000E+00  0.000000E+00  0.000000E+00  0.000000E+00  0.000000E+00  0.000000E+00  0.000000E+00  0.000000E+00  1.000778E+00  5.960637E-10  3.592617E-11  1.000778E+00                                                                                                                                                                                                                                                                                                                                                                                                                                                                                              
  7.600000E+02  1.250000E+02 -4.975000E+03  8.523451E-07  1.655125E-15  1.451357E-16  8.523451E-07  4.784017E-09  9.287118E-18  8.143750E-19  4.784017E-09  0.000000E+00  0.000000E+00  0.000000E+00  0.000000E+00  0.000000E+00  0.000000E+00  0.000000E+00  0.000000E+00  1.000778E+00  1.630826E-09  1.359686E-10  1.000778E+00                                                                                                                                                                                                                                                                                                                                                                                                                                                                                              
  7.800000E+02  1.250000E+02 -4.975000E+03  8.523451E-07  3.482113E-16  1.098868E-16  8.523451E-07  4.784017E-09  1.953858E-18  6.165891E-19  4.784017E-09  0.000000E+00  0.000000E+00  0.000000E+00  0.000000E+00  0.000000E+00  0.000000E+00  0.000000E+00  0.000000E+00  1.000778E+00  3.352835E-10  1.049337E-10  1.000778E+00                                                                                                                                                                                                                                                                                                                                                                                                                                                                                              
  8.000000E+02  1.250000E+02 -4.975000E+03  8.523451E-07 -1.584086E-15  9.941331E-17  8.523451E-07  4.784017E-09 -8.888509E-18  5.578209E-19  4.784017E-09  0.000000E+00  0.000000E+00  0.000000E+00  0.000000E+00  0.000000E+00  0.000000E+00  0.000000E+00  0.000000E+00  1.000778E+00 -1.559103E-09  9.405332E-11  1.000778E+00                                                                                                                                                                                                                                                                                                                                                                                                                                                                                              
  9.350000E+02  1.250000E+02 -4.975000E+03  8.523451E-07 -7.981374E-16  1.725956E-16  8.523451E-07  4.784017E-09 -4.478451E-18  9.684559E-19  4.784017E-09  0.000000E+00  0.000000E+00  0.000000E+00  0.000000E+00  0.000000E+00  0.000000E+00  0.000000E+00  0.000000E+00  1.000778E+00 -7.409774E-10  1.630658E-10  1.000778E+00                                                                                                                                                                                                                                                                                                                                                                                                                                                                                              
  1.185000E+03  1.250000E+02 -4.975000E+03  8.523450E-07 -4.339608E-16  5.671578E-19  8.523450E-07  4.784017E-09 -2.435010E-18  3.182395E-21  4.784017E-09  0.000000E+00  0.000000E+00  0.000000E+00  0.000000E+00  0.000000E+00  0.000000E+00  0.000000E+00  0.000000E+00  1.000778E+00 -4.015305E-10  5.200451E-13  1.000778E+00                                                                                                                                                                                                                                                                                                                                                                                                                                                                                              
  1.435000E+03  1.250000E+02 -4.975000E+03  8.523450E-07 -2.817356E-16  1.495501E-16  8.523450E-07  4.784017E-09 -1.580855E-18  8.391446E-19  4.784017E-09  0.000000E+00  0.000000E+00  0.000000E+00  0.000000E+00  0.000000E+00  0.000000E+00  0.000000E+00  0.000000E+00  1.000778E+00 -2.628893E-10  1.412431E-10  1.000778E+00                                                                                                                                                                                                                                                                                                                                                                                                                                                                                              
  1.250000E+02  1.250000E+02 -4.725000E+03  1.010294E-06  9.847947E-15 -2.914372E-16  1.010294E-06  5.615202E-09  5.473485E-17 -1.619806E-18  5.615202E-09  0.000000E+00  0.000000E+00  0.000000E+00  0.000000E+00  0.000000E+00  0.000000E+00  0.000000E+00  0.000000E+00  1.099305E+00  8.592543E-09 -2.648409E-10  1.099305E+00                                                                                                                                                                                                                                                                                                                                                                                                                                                                                              
  3.750000E+02  1.250000E+02 -4.725000E+03  1.010295E-06  2.986722E-14 -3.514930E-18  1.010295E-06  5.615206E-09  1.660019E-16 -1.953597E-20  5.615206E-09  0.000000E+00  0.000000E+00  0.000000E+00  0.000000E+00  0.000000E+00  0.000000E+00  0.000000E+00  0.000000E+00  1.099306E+00  2.606245E-08 -5.434721E-12  1.099306E+00                                                                                                                                                                                                                                                                                                                                                                                                                                                                                              
  6.250000E+02  1.250000E+02 -4.725000E+03  1.010296E-06  4.621295E-14 -1.412471E-16  1.010296E-06  5.615213E-09  2.568514E-16 -7.850508E-19  5.615213E-09  0.000000E+00  0.000000E+00  0.000000E+00  0.000000E+00  0.000000E+00  0.000000E+00  0.000000E+00  0.000000E+00  1.099307E+00  4.032877E-08 -1.247135E-10  1.099307E+00                                                                                                                                                                                                                                                                                                                                                                                                                                                                                              
  7.600000E+02  1.250000E+02 -4.725000E+03  1.010297E-06  3.391920E-14 -6.832146E-17  1.010297E-06  5.615218E-09  1.885227E-16 -3.797304E-19  5.615218E-09  0.000000E+00  0.000000E+00  0.000000E+00  0.000000E+00  0.000000E+00  0.000000E+00  0.000000E+00  0.000000E+00  1.099308E+00  2.963207E-08 -6.309717E-11  1.099308E+00                                                                                                                                                                                                                                                                                                                                                                                                                                                                                              
  7.800000E+02  1.250000E+02 -4.725000E+03  1.010297E-06 -5.614506E-16 -2.128180E-17  1.010297E-06  5.615218E-09 -3.120540E-18 -1.182842E-19  5.615218E-09  0.000000E+00  0.000000E+00  0.000000E+00  0.000000E+00  0.000000E+00  0.000000E+00  0.000000E+00  0.000000E+00  1.099308E+00 -5.812223E-10 -1.396055E-11  1.099308E+00                                                                                                                                                                                                                                                                                                                                                                                                                                                                                              
  8.000000E+02  1.250000E+02 -4.725000E+03  1.010297E-06 -3.469796E-14 -6.031218E-17  1.010297E-06  5.615218E-09 -1.928511E-16 -3.352148E-19  5.615218E-09  0.000000E+00  0.000000E+00  0.000000E+00  0.000000E+00  0.000000E+00  0.000000E+00  0.000000E+00  0.000000E+00  1.099308E+00 -3.039617E-08 -5.057900E-11  1.099308E+00                                                                                                                                                                                                                                                                                                                                                                                                                                                                                              
  9.350000E+02  1.250000E+02 -4.725000E+03  1.010296E-06 -4.621946E-14  2.700638E-16  1.010296E-06  5.615213E-09 -2.568876E-16  1.501014E-18  5.615213E-09  0.000000E+00  0.000000E+00  0.000000E+00  0.000000E+00  0.000000E+00  0.000000E+00  0.000000E+00  0.000000E+00  1.099307E+00 -4.032453E-08  2.440723E-10  1.099307E+00                                                                                                                                                                                                                                                                                                                                                                                                                                                                                              
  1.185000E+03  1.250000E+02 -4.725000E+03  1.010295E-06 -2.986916E-14 -2.334957E-16  1.010295E-06  5.615206E-09 -1.660127E-16 -1.297768E-18  5.615206E-09  0.000000E+00  0.000000E+00  0.000000E+00  0.000000E+00  0.000000E+00  0.000000E+00  0.000000E+00  0.000000E+00  1.099306E+00 -2.606691E-08 -2.099058E-10  1.099306E+00                                                                                                                                                                                                                                                                                                                                                                                                                                                                                              