Title="TOUGHREACT V3.30-OMP flowdata.tec: P,T,SAT & Other Variables"                                                                                                                                                                                                                                                                                                                                                                                                                                                                                                                                                                                                                                                                                                                                                            
Variables= "X(m)"     "Y(m)"      "Z(m)"       "P(Pa)"        "T(C)"      "SatGas"      "SatLiq"          "X1"          "X2"    "Pcap(Pa)"  "DGas_kg/m3"  "DLiq_kg/m3"    "Porosity"  "Perm_X(m2)"  "Perm_Y(m2)"  "Perm_Z(m2)"    "Krel_Gas"    "Krel_Liq"                                                                                                                                                                                                                                                                                                                                                                                                                                                                                                                                                                      
Zone T= "1.00000000E+11 sec" I=     9 J=    10 K=    23 F=Point
  1.250000E+02  1.250000E+02 -5.425000E+03  5.658520E+07  2.043955E+02  0.000000E+00  1.000000E+00  1.000000E+00  0.000000E+00  0.000000E+00  8.589759E+00  8.968162E+02  1.976999E-01  9.989968E-17  9.989968E-17  9.989968E-17  0.000000E+00  1.000000E+00                                                                                                                                                                                                                                                                                                                                                                                                                                                                                                                                                                    
  3.750000E+02  1.250000E+02 -5.425000E+03  5.658521E+07  2.043953E+02  0.000000E+00  1.000000E+00  1.000000E+00  0.000000E+00  0.000000E+00  8.589721E+00  8.968164E+02  1.976750E-01  9.986615E-17  9.986615E-17  9.986615E-17  0.000000E+00  1.000000E+00                                                                                                                                                                                                                                                                                                                                                                                                                                                                                                                                                                    
  6.250000E+02  1.250000E+02 -5.425000E+03  5.658521E+07  2.043950E+02  0.000000E+00  1.000000E+00  1.000000E+00  0.000000E+00  0.000000E+00  8.589678E+00  8.968167E+02  1.976334E-01  9.981030E-17  9.981030E-17  9.981030E-17  0.000000E+00  1.000000E+00                                                                                                                                                                                                                                                                                                                                                                                                                                                                                                                                                                    
  7.600000E+02  1.250000E+02 -5.425000E+03  5.658521E+07  2.043950E+02  0.000000E+00  1.000000E+00  1.000000E+00  0.000000E+00  0.000000E+00  8.589675E+00  8.968167E+02  1.975929E-01  9.975585E-17  9.975585E-17  9.975585E-17  0.000000E+00  1.000000E+00                                                                                                                                                                                                                                                                                                                                                                                                                                                                                                                                                                    
  7.800000E+02  1.250000E+02 -5.425000E+03  5.658521E+07  2.043950E+02  0.000000E+00  1.000000E+00  1.000000E+00  0.000000E+00  0.000000E+00  8.589675E+00  8.968167E+02  1.975756E-01  9.973274E-17  9.973274E-17  9.973274E-17  0.000000E+00  1.000000E+00                                                                                                                                                                                                                                                                                                                                                                                                                                                                                                                                                                    
  8.000000E+02  1.250000E+02 -5.425000E+03  5.658521E+07  2.043950E+02  0.000000E+00  1.000000E+00  1.000000E+00  0.000000E+00  0.000000E+00  8.589675E+00  8.968167E+02  1.975929E-01  9.975585E-17  9.975585E-17  9.975585E-17  0.000000E+00  1.000000E+00                                                                                                                                                                                                                                                                                                                                                                                                                                                                                                                                                                    
  9.350000E+02  1.250000E+02 -5.425000E+03  5.658521E+07  2.043950E+02  0.000000E+00  1.000000E+00  1.000000E+00  0.000000E+00  0.000000E+00  8.589678E+00  8.968167E+02  1.976334E-01  9.981030E-17  9.981030E-17  9.981030E-17  0.000000E+00  1.000000E+00                                                                                                                                                                                                                                                                                                                                                                                                                                                                                                                                                                    
  1.185000E+03  1.250000E+02 -5.425000E+03  5.658521E+07  2.043953E+02  0.000000E+00  1.000000E+00  1.000000E+00  0.000000E+00  0.000000E+00  8.589721E+00  8.968164E+02  1.976750E-01  9.986615E-17  9.986615E-17  9.986615E-17  0.000000E+00  1.000000E+00                                                                                                                                                                                                                                                                                                                                                                                                                                                                                                                                                                    
  1.435000E+03  1.250000E+02 -5.425000E+03  5.658520E+07  2.043955E+02  0.000000E+00  1.000000E+00  1.000000E+00  0.000000E+00  0.000000E+00  8.589759E+00  8.968162E+02  1.976999E-01  9.989968E-17  9.989968E-17  9.989968E-17  0.000000E+00  1.000000E+00                                                                                                                                                                                                                                                                                                                                                                                                                                                                                                                                                                    
  1.250000E+02  1.250000E+02 -5.225000E+03  5.482376E+07  1.994406E+02  0.000000E+00  1.000000E+00  1.000000E+00  0.000000E+00  0.000000E+00  7.775452E+00  9.006884E+02  1.978855E-01  9.991193E-17  9.991193E-17  9.991193E-17  0.000000E+00  1.000000E+00                                                                                                                                                                                                                                                                                                                                                                                                                                                                                                                                                                    
  3.750000E+02  1.250000E+02 -5.225000E+03  5.482376E+07  1.994403E+02  0.000000E+00  1.000000E+00  1.000000E+00  0.000000E+00  0.000000E+00  7.775406E+00  9.006887E+02  1.978578E-01  9.987467E-17  9.987467E-17  9.987467E-17  0.000000E+00  1.000000E+00                                                                                                                                                                                                                                                                                                                                                                                                                                                                                                                                                                    
  6.250000E+02  1.250000E+02 -5.225000E+03  5.482376E+07  1.994400E+02  0.000000E+00  1.000000E+00  1.000000E+00  0.000000E+00  0.000000E+00  7.775349E+00  9.006891E+02  1.978101E-01  9.981057E-17  9.981057E-17  9.981057E-17  0.000000E+00  1.000000E+00                                                                                                                                                                                                                                                                                                                                                                                                                                                                                                                                                                    
  7.600000E+02  1.250000E+02 -5.225000E+03  5.482376E+07  1.994399E+02  0.000000E+00  1.000000E+00  1.000000E+00  0.000000E+00  0.000000E+00  7.775345E+00  9.006891E+02  1.977628E-01  9.974713E-17  9.974713E-17  9.974713E-17  0.000000E+00  1.000000E+00                                                                                                                                                                                                                                                                                                                                                                                                                                                                                                                                                                    
  7.800000E+02  1.250000E+02 -5.225000E+03  5.482376E+07  1.994399E+02  0.000000E+00  1.000000E+00  1.000000E+00  0.000000E+00  0.000000E+00  7.775345E+00  9.006891E+02  1.977424E-01  9.971982E-17  9.971982E-17  9.971982E-17  0.000000E+00  1.000000E+00                                                                                                                                                                                                                                                                                                                                                                                                                                                                                                                                                                    
  8.000000E+02  1.250000E+02 -5.225000E+03  5.482376E+07  1.994399E+02  0.000000E+00  1.000000E+00  1.000000E+00  0.000000E+00  0.000000E+00  7.775345E+00  9.006891E+02  1.977628E-01  9.974713E-17  9.974713E-17  9.974713E-17  0.000000E+00  1.000000E+00                                                                                                                                                                                                                                                                                                                                                                                                                                                                                                                                                                    
  9.350000E+02  1.250000E+02 -5.225000E+03  5.482376E+07  1.994400E+02  0.000000E+00  1.000000E+00  1.000000E+00  0.000000E+00  0.000000E+00  7.775349E+00  9.006891E+02  1.978101E-01  9.981057E-17  9.981057E-17  9.981057E-17  0.000000E+00  1.000000E+00                                                                                                                                                                                                                                                                                                                                                                                                                                                                                                                                                                    
  1.185000E+03  1.250000E+02 -5.225000E+03  5.482376E+07  1.994403E+02  0.000000E+00  1.000000E+00  1.000000E+00  0.000000E+00  0.000000E+00  7.775406E+00  9.006887E+02  1.978578E-01  9.987467E-17  9.987467E-17  9.987467E-17  0.000000E+00  1.000000E+00                                                                                                                                                                                                                                                                                                                                                                                                                                                                                                                                                                    
  1.435000E+03  1.250000E+02 -5.225000E+03  5.482376E+07  1.994406E+02  0.000000E+00  1.000000E+00  1.000000E+00  0.000000E+00  0.000000E+00  7.775452E+00  9.006884E+02  1.978855E-01  9.991193E-17  9.991193E-17  9.991193E-17  0.000000E+00  1.000000E+00                                                                                                                                                                                                                                                                                                                                                                                                                                                                                                                                                                    
  1.250000E+02  1.250000E+02 -4.975000E+03  5.261122E+07  1.929189E+02  0.000000E+00  1.000000E+00  1.000000E+00  0.000000E+00  0.000000E+00  6.800358E+00  9.057768E+02  1.981074E-01  9.992445E-17  9.992445E-17  9.992445E-17  0.000000E+00  1.000000E+00                                                                                                                                                                                                                                                                                                                                                                                                                                                                                                                                                                    
  3.750000E+02  1.250000E+02 -4.975000E+03  5.261122E+07  1.929183E+02  0.000000E+00  1.000000E+00  1.000000E+00  0.000000E+00  0.000000E+00  6.800274E+00  9.057774E+02  1.980777E-01  9.988454E-17  9.988454E-17  9.988454E-17  0.000000E+00  1.000000E+00                                                                                                                                                                                                                                                                                                                                                                                                                                                                                                                                                                    
  6.250000E+02  1.250000E+02 -4.975000E+03  5.261122E+07  1.929175E+02  0.000000E+00  1.000000E+00  1.000000E+00  0.000000E+00  0.000000E+00  6.800156E+00  9.057782E+02  1.980242E-01  9.981287E-17  9.981287E-17  9.981287E-17  0.000000E+00  1.000000E+00                                                                                                                                                                                                                                                                                                                                                                                                                                                                                                                                                                    
  7.600000E+02  1.250000E+02 -4.975000E+03  5.261122E+07  1.929174E+02  0.000000E+00  1.000000E+00  1.000000E+00  0.000000E+00  0.000000E+00  6.800145E+00  9.057783E+02  1.979675E-01  9.973679E-17  9.973679E-17  9.973679E-17  0.000000E+00  1.000000E+00                                                                                                                                                                                                                                                                                                                                                                                                                                                                                                                                                                    
  7.800000E+02  1.250000E+02 -4.975000E+03  5.261122E+07  1.929174E+02  0.000000E+00  1.000000E+00  1.000000E+00  0.000000E+00  0.000000E+00  6.800144E+00  9.057783E+02  1.979432E-01  9.970433E-17  9.970433E-17  9.970433E-17  0.000000E+00  1.000000E+00                                                                                                                                                                                                                                                                                                                                                                                                                                                                                                                                                                    
  8.000000E+02  1.250000E+02 -4.975000E+03  5.261122E+07  1.929174E+02  0.000000E+00  1.000000E+00  1.000000E+00  0.000000E+00  0.000000E+00  6.800145E+00  9.057783E+02  1.979675E-01  9.973679E-17  9.973679E-17  9.973679E-17  0.000000E+00  1.000000E+00                                                                                                                                                                                                                                                                                                                                                                                                                                                                                                                                                                    
  9.350000E+02  1.250000E+02 -4.975000E+03  5.261122E+07  1.929175E+02  0.000000E+00  1.000000E+00  1.000000E+00  0.000000E+00  0.000000E+00  6.800156E+00  9.057782E+02  1.980242E-01  9.981287E-17  9.981287E-17  9.981287E-17  0.000000E+00  1.000000E+00                                                                                                                                                                                                                                                                                                                                                                                                                                                                                                                                                                    
  1.185000E+03  1.250000E+02 -4.975000E+03  5.261122E+07  1.929183E+02  0.000000E+00  1.000000E+00  1.000000E+00  0.000000E+00  0.000000E+00  6.800274E+00  9.057774E+02  1.980777E-01  9.988454E-17  9.988454E-17  9.988454E-17  0.000000E+00  1.000000E+00                                                                                                                                                                                                                                                                                                                                                                                                                                                                                                                                                                    
  1.435000E+03  1.250000E+02 -4.975000E+03  5.261122E+07  1.929189E+02  0.000000E+00  1.000000E+00  1.000000E+00  0.000000E+00  0.000000E+00  6.800358E+00  9.057768E+02  1.981074E-01  9.992445E-17  9.992445E-17  9.992445E-17  0.000000E+00  1.000000E+00                                                                                                                                                                                                                                                                                                                                                                                                                                                                                                                                                                    
  1.250000E+02  1.250000E+02 -4.725000E+03  5.038617E+07  1.860523E+02  0.000000E+00  1.000000E+00  1.000000E+00  0.000000E+00  0.000000E+00  5.883131E+00  9.111032E+02  1.983190E-01  9.993598E-17  9.993598E-17  9.993598E-17  0.000000E+00  1.000000E+00                                                                                                                                                                                                                                                                                                                                                                                                                                                                                                                                                                    
  3.750000E+02  1.250000E+02 -4.725000E+03  5.038618E+07  1.860511E+02  0.000000E+00  1.000000E+00  1.000000E+00  0.000000E+00  0.000000E+00  5.882974E+00  9.111044E+02  1.982906E-01  9.989794E-17  9.989794E-17  9.989794E-17  0.000000E+00  1.000000E+00                                                                                                                                                                                                                                                                                                                                                                                                                                                                                                                                                                    
  6.250000E+02  1.250000E+02 -4.725000E+03  5.038618E+07  1.860488E+02  0.000000E+00  1.000000E+00  1.000000E+00  0.000000E+00  0.000000E+00  5.882695E+00  9.111065E+02  1.982299E-01  9.981657E-17  9.981657E-17  9.981657E-17  0.000000E+00  1.000000E+00                                                                                                                                                                                                                                                                                                                                                                                                                                                                                                                                                                    
  7.600000E+02  1.250000E+02 -4.725000E+03  5.038618E+07  1.860482E+02  0.000000E+00  1.000000E+00  1.000000E+00  0.000000E+00  0.000000E+00  5.882611E+00  9.111071E+02  1.981668E-01  9.973204E-17  9.973204E-17  9.973204E-17  0.000000E+00  1.000000E+00                                                                                                                                                                                                                                                                                                                                                                                                                                                                                                                                                                    
  7.800000E+02  1.250000E+02 -4.725000E+03  5.038618E+07  1.860481E+02  0.000000E+00  1.000000E+00  1.000000E+00  0.000000E+00  0.000000E+00  5.882607E+00  9.111072E+02  1.981368E-01  9.969194E-17  9.969194E-17  9.969194E-17  0.000000E+00  1.000000E+00                                                                                                                                                                                                                                                                                                                                                                                                                                                                                                                                                                    
  8.000000E+02  1.250000E+02 -4.725000E+03  5.038618E+07  1.860482E+02  0.000000E+00  1.000000E+00  1.000000E+00  0.000000E+00  0.000000E+00  5.882611E+00  9.111071E+02  1.981668E-01  9.973204E-17  9.973204E-17  9.973204E-17  0.000000E+00  1.000000E+00                                                                                                                                                                                                                                                                                                                                                                                                                                                                                                                                                                    
  9.350000E+02  1.250000E+02 -4.725000E+03  5.038618E+07  1.860488E+02  0.000000E+00  1.000000E+00  1.000000E+00  0.000000E+00  0.000000E+00  5.882695E+00  9.111065E+02  1.982299E-01  9.981657E-17  9.981657E-17  9.981657E-17  0.000000E+00  1.000000E+00                                                                                                                                                                                                                                                                                                                                                                                                                                                                                                                                                                    
  1.185000E+03  1.250000E+02 -4.725000E+03  5.038618E+07  1.860511E+02  0.000000E+00  1.000000E+00  1.000000E+00  0.000000E+00  0.000000E+00  5.882974E+00  9.111044E+02  1.982906E-01  9.989794E-17  9.989794E-17  9.989794E-17  0.000000E+00  1.000000E+00                                                                                                                                                                                                                                                                                                                                                                                                                                                                                                                                                                    