Title="TOUGHREACT V3.30-OMP flowvector.tec: Liq & Gas Fluxes (kg/s/m^2), Pore Velocities (m/s), & Heat Fluxes (J/s/m2)"                                                                                                                                                                                                                                                                                                                                                                                                                                                                                                                                                                                                                                                                                                         
Variables= "X(m)"     "Y(m)"      "Z(m)"     "FluxLiq"   "FluxLiq_X"   "FluxLiq_Y"   "FluxLiq_Z"   "PorVelLiq"  "PorVelLiqX"  "PorVelLiqY"  "PorVelLiqZ"     "FluxGas"   "FluxGas_X"   "FluxGas_Y"   "FluxGas_Z"   "PorVelGas"  "PorVelGasX"  "PorVelGasY"  "PorVelGasZ"    "HeatFlux"  "HeatFlux_X"  "HeatFlux_Y"  "HeatFlux_Z"                                                                                                                                                                                                                                                                                                                                                                                                                                                                                                
Zone T= "1.00000000E+09 sec" I=     9 J=    10 K=    23 F=Point
  1.250000E+02  1.250000E+02 -5.425000E+03  3.071334E-10 -5.000881E-11  1.406814E-15  3.030347E-10  1.730623E-12 -2.824114E-13  7.943611E-18  1.707424E-12  0.000000E+00  0.000000E+00  0.000000E+00  0.000000E+00  0.000000E+00  0.000000E+00  0.000000E+00  0.000000E+00  6.175372E-02 -3.796476E-05  4.052124E-10  6.175371E-02                                                                                                                                                                                                                                                                                                                                                                                                                                                                                              
  3.750000E+02  1.250000E+02 -5.425000E+03  3.219717E-10 -1.120052E-10  1.505441E-15  3.018619E-10  1.814848E-12 -6.325928E-13  8.501572E-18  1.701029E-12  0.000000E+00  0.000000E+00  0.000000E+00  0.000000E+00  0.000000E+00  0.000000E+00  0.000000E+00  0.000000E+00  6.175403E-02 -8.265536E-05  1.237809E-09  6.175398E-02                                                                                                                                                                                                                                                                                                                                                                                                                                                                                              
  6.250000E+02  1.250000E+02 -5.425000E+03  3.074889E-10 -7.397132E-11  1.607564E-15  2.984589E-10  1.733319E-12 -4.178343E-13  9.080181E-18  1.682203E-12  0.000000E+00  0.000000E+00  0.000000E+00  0.000000E+00  0.000000E+00  0.000000E+00  0.000000E+00  0.000000E+00  6.175331E-02 -4.354541E-05  1.291156E-09  6.175330E-02                                                                                                                                                                                                                                                                                                                                                                                                                                                                                              
  7.600000E+02  1.250000E+02 -5.425000E+03  2.963079E-10 -1.622929E-11  1.513269E-15  2.958631E-10  1.670431E-12 -9.169048E-14  8.549310E-18  1.667913E-12  0.000000E+00  0.000000E+00  0.000000E+00  0.000000E+00  0.000000E+00  0.000000E+00  0.000000E+00  0.000000E+00  6.175201E-02  1.439718E-06  2.021316E-09  6.175201E-02                                                                                                                                                                                                                                                                                                                                                                                                                                                                                              
  7.800000E+02  1.250000E+02 -5.425000E+03  2.956574E-10  9.334901E-15  1.580809E-15  2.956574E-10  1.666898E-12  5.274270E-17  8.931659E-18  1.666898E-12  0.000000E+00  0.000000E+00  0.000000E+00  0.000000E+00  0.000000E+00  0.000000E+00  0.000000E+00  0.000000E+00  6.175188E-02  8.881798E-09  2.153443E-09  6.175188E-02                                                                                                                                                                                                                                                                                                                                                                                                                                                                                              
  8.000000E+02  1.250000E+02 -5.425000E+03  2.963090E-10  1.624771E-11  1.628548E-15  2.958632E-10  1.670438E-12  9.179456E-14  9.200583E-18  1.667914E-12  0.000000E+00  0.000000E+00  0.000000E+00  0.000000E+00  0.000000E+00  0.000000E+00  0.000000E+00  0.000000E+00  6.175201E-02 -1.421740E-06  2.308310E-09  6.175201E-02                                                                                                                                                                                                                                                                                                                                                                                                                                                                                              
  9.350000E+02  1.250000E+02 -5.425000E+03  3.074918E-10  7.398224E-11  1.961049E-15  2.984591E-10  1.733335E-12  4.178960E-13  1.107680E-17  1.682204E-12  0.000000E+00  0.000000E+00  0.000000E+00  0.000000E+00  0.000000E+00  0.000000E+00  0.000000E+00  0.000000E+00  6.175331E-02  4.355437E-05  2.694754E-09  6.175330E-02                                                                                                                                                                                                                                                                                                                                                                                                                                                                                              
  1.185000E+03  1.250000E+02 -5.425000E+03  3.219736E-10  1.120065E-10  1.514989E-15  3.018634E-10  1.814859E-12  6.326000E-13  8.555492E-18  1.701038E-12  0.000000E+00  0.000000E+00  0.000000E+00  0.000000E+00  0.000000E+00  0.000000E+00  0.000000E+00  0.000000E+00  6.175403E-02  8.265470E-05  2.164397E-09  6.175398E-02                                                                                                                                                                                                                                                                                                                                                                                                                                                                                              
  1.435000E+03  1.250000E+02 -5.425000E+03  3.071353E-10  5.000825E-11  1.859194E-15  3.030367E-10  1.730633E-12  2.824083E-13  1.049798E-17  1.707436E-12  0.000000E+00  0.000000E+00  0.000000E+00  0.000000E+00  0.000000E+00  0.000000E+00  0.000000E+00  0.000000E+00  6.175373E-02  3.796423E-05  2.255875E-09  6.175372E-02                                                                                                                                                                                                                                                                                                                                                                                                                                                                                              
  1.250000E+02  1.250000E+02 -5.225000E+03  1.064948E-09 -4.820150E-11  2.061429E-15  1.063856E-09  5.975317E-12 -2.707899E-13  1.157923E-17  5.969178E-12  0.000000E+00  0.000000E+00  0.000000E+00  0.000000E+00  0.000000E+00  0.000000E+00  0.000000E+00  0.000000E+00  1.265727E-01 -3.422010E-05  1.009833E-09  1.265727E-01                                                                                                                                                                                                                                                                                                                                                                                                                                                                                              
  3.750000E+02  1.250000E+02 -5.225000E+03  1.070742E-09 -1.088090E-10  1.876460E-15  1.065199E-09  6.008649E-12 -6.113565E-13  1.054171E-17  5.977467E-12  0.000000E+00  0.000000E+00  0.000000E+00  0.000000E+00  0.000000E+00  0.000000E+00  0.000000E+00  0.000000E+00  1.265773E-01 -7.441577E-05  4.482388E-10  1.265773E-01                                                                                                                                                                                                                                                                                                                                                                                                                                                                                              
  6.250000E+02  1.250000E+02 -5.225000E+03  1.063683E-09 -7.286582E-11  1.125994E-15  1.061184E-09  5.970293E-12 -4.094654E-13  6.327204E-18  5.956235E-12  0.000000E+00  0.000000E+00  0.000000E+00  0.000000E+00  0.000000E+00  0.000000E+00  0.000000E+00  0.000000E+00  1.265807E-01 -3.747871E-05  2.996747E-10  1.265807E-01                                                                                                                                                                                                                                                                                                                                                                                                                                                                                              
  7.600000E+02  1.250000E+02 -5.225000E+03  1.055340E-09 -1.666320E-11  1.437407E-15  1.055209E-09  5.924760E-12 -9.365896E-14  8.079021E-18  5.924020E-12  0.000000E+00  0.000000E+00  0.000000E+00  0.000000E+00  0.000000E+00  0.000000E+00  0.000000E+00  0.000000E+00  1.265779E-01  3.511825E-06  1.432257E-09  1.265779E-01                                                                                                                                                                                                                                                                                                                                                                                                                                                                                              
  7.800000E+02  1.250000E+02 -5.225000E+03  1.054628E-09  1.065743E-14  1.429794E-15  1.054628E-09  5.921341E-12  5.990681E-17  8.037057E-18  5.921341E-12  0.000000E+00  0.000000E+00  0.000000E+00  0.000000E+00  0.000000E+00  0.000000E+00  0.000000E+00  0.000000E+00  1.265776E-01  8.567495E-09  1.478761E-09  1.265776E-01                                                                                                                                                                                                                                                                                                                                                                                                                                                                                              
  8.000000E+02  1.250000E+02 -5.225000E+03  1.055341E-09  1.668288E-11  1.438222E-15  1.055209E-09  5.924763E-12  9.376955E-14  8.083600E-18  5.924021E-12  0.000000E+00  0.000000E+00  0.000000E+00  0.000000E+00  0.000000E+00  0.000000E+00  0.000000E+00  0.000000E+00  1.265779E-01 -3.496343E-06  1.491397E-09  1.265779E-01                                                                                                                                                                                                                                                                                                                                                                                                                                                                                              
  9.350000E+02  1.250000E+02 -5.225000E+03  1.063685E-09  7.287738E-11  1.783772E-15  1.061186E-09  5.970309E-12  4.095304E-13  1.002340E-17  5.956247E-12  0.000000E+00  0.000000E+00  0.000000E+00  0.000000E+00  0.000000E+00  0.000000E+00  0.000000E+00  0.000000E+00  1.265807E-01  3.748698E-05  1.500671E-09  1.265807E-01                                                                                                                                                                                                                                                                                                                                                                                                                                                                                              
  1.185000E+03  1.250000E+02 -5.225000E+03  1.070746E-09  1.088116E-10  1.959993E-15  1.065203E-09  6.008674E-12  6.113712E-13  1.101099E-17  5.977490E-12  0.000000E+00  0.000000E+00  0.000000E+00  0.000000E+00  0.000000E+00  0.000000E+00  0.000000E+00  0.000000E+00  1.265773E-01  7.441950E-05  1.842489E-09  1.265773E-01                                                                                                                                                                                                                                                                                                                                                                                                                                                                                              
  1.435000E+03  1.250000E+02 -5.225000E+03  1.064954E-09  4.820157E-11  1.955312E-15  1.063862E-09  5.975351E-12  2.707903E-13  1.098316E-17  5.969212E-12  0.000000E+00  0.000000E+00  0.000000E+00  0.000000E+00  0.000000E+00  0.000000E+00  0.000000E+00  0.000000E+00  1.265727E-01  3.422247E-05  6.006121E-10  1.265727E-01                                                                                                                                                                                                                                                                                                                                                                                                                                                                                              
  1.250000E+02  1.250000E+02 -4.975000E+03  1.847144E-09 -4.171164E-11  1.348255E-15  1.846673E-09  1.030573E-11 -2.327762E-13  7.522955E-18  1.030310E-11  0.000000E+00  0.000000E+00  0.000000E+00  0.000000E+00  0.000000E+00  0.000000E+00  0.000000E+00  0.000000E+00  1.331590E-01 -2.521169E-05 -1.773308E-10  1.331590E-01                                                                                                                                                                                                                                                                                                                                                                                                                                                                                              
  3.750000E+02  1.250000E+02 -4.975000E+03  1.866807E-09 -9.660116E-11  3.610711E-16  1.864306E-09  1.041677E-11 -5.391749E-13  2.014994E-18  1.040280E-11  0.000000E+00  0.000000E+00  0.000000E+00  0.000000E+00  0.000000E+00  0.000000E+00  0.000000E+00  0.000000E+00  1.331802E-01 -5.422127E-05 -1.816280E-09  1.331802E-01                                                                                                                                                                                                                                                                                                                                                                                                                                                                                              
  6.250000E+02  1.250000E+02 -4.975000E+03  1.878505E-09 -6.771649E-11  1.438157E-15  1.877284E-09  1.048449E-11 -3.780206E-13  8.027926E-18  1.047767E-11  0.000000E+00  0.000000E+00  0.000000E+00  0.000000E+00  0.000000E+00  0.000000E+00  0.000000E+00  0.000000E+00  1.332070E-01 -2.357804E-05  1.959614E-09  1.332070E-01                                                                                                                                                                                                                                                                                                                                                                                                                                                                                              
  7.600000E+02  1.250000E+02 -4.975000E+03  1.870348E-09 -1.744651E-11  1.597986E-15  1.870267E-09  1.044172E-11 -9.741901E-14  8.922656E-18  1.044126E-11  0.000000E+00  0.000000E+00  0.000000E+00  0.000000E+00  0.000000E+00  0.000000E+00  0.000000E+00  0.000000E+00  1.332099E-01  7.149327E-06  1.086446E-09  1.332099E-01                                                                                                                                                                                                                                                                                                                                                                                                                                                                                              
  7.800000E+02  1.250000E+02 -4.975000E+03  1.869329E-09  1.228219E-14  1.622016E-15  1.869329E-09  1.043722E-11  6.858826E-17  9.057936E-18  1.043722E-11  0.000000E+00  0.000000E+00  0.000000E+00  0.000000E+00  0.000000E+00  0.000000E+00  0.000000E+00  0.000000E+00  1.332096E-01  1.083929E-08  1.099170E-09  1.332096E-01                                                                                                                                                                                                                                                                                                                                                                                                                                                                                              
  8.000000E+02  1.250000E+02 -4.975000E+03  1.870349E-09  1.747074E-11  1.675465E-15  1.870267E-09  1.044172E-11  9.755436E-14  9.355271E-18  1.044127E-11  0.000000E+00  0.000000E+00  0.000000E+00  0.000000E+00  0.000000E+00  0.000000E+00  0.000000E+00  0.000000E+00  1.332099E-01 -7.127124E-06  1.130833E-09  1.332099E-01                                                                                                                                                                                                                                                                                                                                                                                                                                                                                              
  9.350000E+02  1.250000E+02 -4.975000E+03  1.878507E-09  6.773127E-11  2.006170E-15  1.877286E-09  1.048451E-11  3.781031E-13  1.119863E-17  1.047769E-11  0.000000E+00  0.000000E+00  0.000000E+00  0.000000E+00  0.000000E+00  0.000000E+00  0.000000E+00  0.000000E+00  1.332070E-01  2.359005E-05  1.239862E-09  1.332070E-01                                                                                                                                                                                                                                                                                                                                                                                                                                                                                              
  1.185000E+03  1.250000E+02 -4.975000E+03  1.866810E-09  9.660588E-11  2.199057E-15  1.864309E-09  1.041679E-11  5.392012E-13  1.227206E-17  1.040282E-11  0.000000E+00  0.000000E+00  0.000000E+00  0.000000E+00  0.000000E+00  0.000000E+00  0.000000E+00  0.000000E+00  1.331802E-01  5.422413E-05  7.731243E-10  1.331802E-01                                                                                                                                                                                                                                                                                                                                                                                                                                                                                              
  1.435000E+03  1.250000E+02 -4.975000E+03  1.847148E-09  4.171353E-11  1.770201E-15  1.846677E-09  1.030575E-11  2.327867E-13  9.877318E-18  1.030312E-11  0.000000E+00  0.000000E+00  0.000000E+00  0.000000E+00  0.000000E+00  0.000000E+00  0.000000E+00  0.000000E+00  1.331590E-01  2.521391E-05  3.933070E-10  1.331590E-01                                                                                                                                                                                                                                                                                                                                                                                                                                                                                              
  1.250000E+02  1.250000E+02 -4.725000E+03  2.311065E-09 -2.214548E-11  5.444318E-16  2.310959E-09  1.281685E-11 -1.227431E-13  3.017128E-18  1.281626E-11  0.000000E+00  0.000000E+00  0.000000E+00  0.000000E+00  0.000000E+00  0.000000E+00  0.000000E+00  0.000000E+00  1.407146E-01 -3.929483E-06 -2.554358E-10  1.407146E-01                                                                                                                                                                                                                                                                                                                                                                                                                                                                                              
  3.750000E+02  1.250000E+02 -4.725000E+03  2.364217E-09 -5.516696E-11  4.106082E-16  2.363573E-09  1.311320E-11 -3.058229E-13  2.275827E-18  1.310963E-11  0.000000E+00  0.000000E+00  0.000000E+00  0.000000E+00  0.000000E+00  0.000000E+00  0.000000E+00  0.000000E+00  1.407693E-01 -2.152805E-06  2.589052E-13  1.407693E-01                                                                                                                                                                                                                                                                                                                                                                                                                                                                                              
  6.250000E+02  1.250000E+02 -4.725000E+03  2.428451E-09 -4.404148E-11  5.469901E-16  2.428052E-09  1.347277E-11 -2.441968E-13  3.032653E-18  1.347056E-11  0.000000E+00  0.000000E+00  0.000000E+00  0.000000E+00  0.000000E+00  0.000000E+00  0.000000E+00  0.000000E+00  1.408577E-01  2.295408E-05 -4.268789E-10  1.408577E-01                                                                                                                                                                                                                                                                                                                                                                                                                                                                                              
  7.600000E+02  1.250000E+02 -4.725000E+03  2.416075E-09 -1.522568E-11  8.561462E-16  2.416027E-09  1.340819E-11 -8.444530E-14  4.748192E-18  1.340793E-11  0.000000E+00  0.000000E+00  0.000000E+00  0.000000E+00  0.000000E+00  0.000000E+00  0.000000E+00  0.000000E+00  1.409531E-01  2.820506E-05  1.218296E-11  1.409531E-01                                                                                                                                                                                                                                                                                                                                                                                                                                                                                              
  7.800000E+02  1.250000E+02 -4.725000E+03  2.414505E-09  1.359329E-14  8.734624E-16  2.414505E-09  1.340133E-11  7.539992E-17  4.844961E-18  1.340133E-11  0.000000E+00  0.000000E+00  0.000000E+00  0.000000E+00  0.000000E+00  0.000000E+00  0.000000E+00  0.000000E+00  1.409581E-01  1.153267E-08  4.190359E-11  1.409581E-01                                                                                                                                                                                                                                                                                                                                                                                                                                                                                              
  8.000000E+02  1.250000E+02 -4.725000E+03  2.416073E-09  1.525106E-11  8.815744E-16  2.416025E-09  1.340818E-11  8.458608E-14  4.889218E-18  1.340792E-11  0.000000E+00  0.000000E+00  0.000000E+00  0.000000E+00  0.000000E+00  0.000000E+00  0.000000E+00  0.000000E+00  1.409531E-01 -2.818369E-05  4.943736E-11  1.409531E-01                                                                                                                                                                                                                                                                                                                                                                                                                                                                                              
  9.350000E+02  1.250000E+02 -4.725000E+03  2.428437E-09  4.405629E-11  7.789519E-16  2.428037E-09  1.347269E-11  2.442789E-13  4.318708E-18  1.347048E-11  0.000000E+00  0.000000E+00  0.000000E+00  0.000000E+00  0.000000E+00  0.000000E+00  0.000000E+00  0.000000E+00  1.408577E-01 -2.294202E-05  1.541876E-10  1.408577E-01                                                                                                                                                                                                                                                                                                                                                                                                                                                                                              
  1.185000E+03  1.250000E+02 -4.725000E+03  2.364197E-09  5.517046E-11  1.409325E-15  2.363553E-09  1.311308E-11  3.058423E-13  7.811291E-18  1.310952E-11  0.000000E+00  0.000000E+00  0.000000E+00  0.000000E+00  0.000000E+00  0.000000E+00  0.000000E+00  0.000000E+00  1.407693E-01  2.154516E-06  1.598493E-09  1.407693E-01                                                                                                                                                                                                                                                                                                                                                                                                                                                                                              