Title="TOUGHREACT V3.30-OMP flowvector.tec: Liq & Gas Fluxes (kg/s/m^2), Pore Velocities (m/s), & Heat Fluxes (J/s/m2)"                                                                                                                                                                                                                                                                                                                                                                                                                                                                                                                                                                                                                                                                                                         
Variables= "X(m)"     "Y(m)"      "Z(m)"     "FluxLiq"   "FluxLiq_X"   "FluxLiq_Y"   "FluxLiq_Z"   "PorVelLiq"  "PorVelLiqX"  "PorVelLiqY"  "PorVelLiqZ"     "FluxGas"   "FluxGas_X"   "FluxGas_Y"   "FluxGas_Z"   "PorVelGas"  "PorVelGasX"  "PorVelGasY"  "PorVelGasZ"    "HeatFlux"  "HeatFlux_X"  "HeatFlux_Y"  "HeatFlux_Z"                                                                                                                                                                                                                                                                                                                                                                                                                                                                                                
Zone T= "5.00000000E-02 sec" I=     9 J=    10 K=    23 F=Point
  1.250000E+02  1.250000E+02 -5.425000E+03  1.254279E-10 -1.102094E-12  2.828178E-16 -1.254231E-10  7.059964E-13 -6.222252E-15  1.596746E-18 -7.059690E-13  0.000000E+00  0.000000E+00  0.000000E+00  0.000000E+00  0.000000E+00  0.000000E+00  0.000000E+00  0.000000E+00  6.136249E-02  7.335186E-07  7.194243E-11  6.136249E-02                                                                                                                                                                                                                                                                                                                                                                                                                                                                                              
  3.750000E+02  1.250000E+02 -5.425000E+03  1.260095E-10 -2.361034E-12  3.991969E-16 -1.259874E-10  7.092702E-13 -1.333003E-14  2.253804E-18 -7.091450E-13  0.000000E+00  0.000000E+00  0.000000E+00  0.000000E+00  0.000000E+00  0.000000E+00  0.000000E+00  0.000000E+00  6.136282E-02  1.584422E-06  1.830092E-10  6.136282E-02                                                                                                                                                                                                                                                                                                                                                                                                                                                                                              
  6.250000E+02  1.250000E+02 -5.425000E+03  1.267559E-10 -1.403794E-12  2.327582E-16 -1.267481E-10  7.134710E-13 -7.925601E-15  1.314117E-18 -7.134270E-13  0.000000E+00  0.000000E+00  0.000000E+00  0.000000E+00  0.000000E+00  0.000000E+00  0.000000E+00  0.000000E+00  6.136331E-02  9.495231E-07  1.384340E-10  6.136331E-02                                                                                                                                                                                                                                                                                                                                                                                                                                                                                              
  7.600000E+02  1.250000E+02 -5.425000E+03  1.268034E-10 -1.931423E-13  2.440213E-16 -1.268033E-10  7.137382E-13 -1.090451E-15  1.377706E-18 -7.137373E-13  0.000000E+00  0.000000E+00  0.000000E+00  0.000000E+00  0.000000E+00  0.000000E+00  0.000000E+00  0.000000E+00  6.136335E-02  1.308411E-07 -1.616662E-12  6.136335E-02                                                                                                                                                                                                                                                                                                                                                                                                                                                                                              
  7.800000E+02  1.250000E+02 -5.425000E+03  1.268060E-10  4.692180E-16  2.452707E-16 -1.268060E-10  7.137527E-13  2.649131E-18  1.384760E-18 -7.137527E-13  0.000000E+00  0.000000E+00  0.000000E+00  0.000000E+00  0.000000E+00  0.000000E+00  0.000000E+00  0.000000E+00  6.136335E-02 -6.959459E-10  7.010894E-11  6.136335E-02                                                                                                                                                                                                                                                                                                                                                                                                                                                                                              
  8.000000E+02  1.250000E+02 -5.425000E+03  1.268034E-10  1.943438E-13  2.352663E-16 -1.268033E-10  7.137382E-13  1.097235E-15  1.328277E-18 -7.137373E-13  0.000000E+00  0.000000E+00  0.000000E+00  0.000000E+00  0.000000E+00  0.000000E+00  0.000000E+00  0.000000E+00  6.136335E-02 -1.310670E-07  1.081943E-10  6.136335E-02                                                                                                                                                                                                                                                                                                                                                                                                                                                                                              
  9.350000E+02  1.250000E+02 -5.425000E+03  1.267562E-10  1.404705E-12  3.629738E-17 -1.267485E-10  7.134728E-13  7.930746E-15  2.049293E-19 -7.134287E-13  0.000000E+00  0.000000E+00  0.000000E+00  0.000000E+00  0.000000E+00  0.000000E+00  0.000000E+00  0.000000E+00  6.136331E-02 -9.486756E-07  5.430683E-11  6.136331E-02                                                                                                                                                                                                                                                                                                                                                                                                                                                                                              
  1.185000E+03  1.250000E+02 -5.425000E+03  1.260101E-10  2.361839E-12 -1.001092E-16 -1.259880E-10  7.092739E-13  1.333458E-14 -5.652012E-19 -7.091485E-13  0.000000E+00  0.000000E+00  0.000000E+00  0.000000E+00  0.000000E+00  0.000000E+00  0.000000E+00  0.000000E+00  6.136282E-02 -1.583813E-06 -7.750671E-11  6.136282E-02                                                                                                                                                                                                                                                                                                                                                                                                                                                                                              
  1.435000E+03  1.250000E+02 -5.425000E+03  1.254292E-10  1.102720E-12 -5.130776E-16 -1.254244E-10  7.060038E-13  6.225785E-15 -2.896757E-18 -7.059763E-13  0.000000E+00  0.000000E+00  0.000000E+00  0.000000E+00  0.000000E+00  0.000000E+00  0.000000E+00  0.000000E+00  6.136248E-02 -7.332870E-07 -4.444256E-10  6.136248E-02                                                                                                                                                                                                                                                                                                                                                                                                                                                                                              
  1.250000E+02  1.250000E+02 -5.225000E+03  4.718620E-10 -1.043030E-12  6.654200E-17 -4.718608E-10  2.644310E-12 -5.858325E-15  3.737427E-19 -2.644303E-12  0.000000E+00  0.000000E+00  0.000000E+00  0.000000E+00  0.000000E+00  0.000000E+00  0.000000E+00  0.000000E+00  1.252001E-01  1.475727E-06 -1.427004E-10  1.252001E-01                                                                                                                                                                                                                                                                                                                                                                                                                                                                                              
  3.750000E+02  1.250000E+02 -5.225000E+03  4.738189E-10 -2.304642E-12 -1.182937E-16 -4.738133E-10  2.655277E-12 -1.294435E-14 -6.644135E-19 -2.655245E-12  0.000000E+00  0.000000E+00  0.000000E+00  0.000000E+00  0.000000E+00  0.000000E+00  0.000000E+00  0.000000E+00  1.252019E-01  3.279502E-06 -5.031961E-10  1.252019E-01                                                                                                                                                                                                                                                                                                                                                                                                                                                                                              
  6.250000E+02  1.250000E+02 -5.225000E+03  4.766604E-10 -1.415685E-12 -1.479014E-17 -4.766583E-10  2.671199E-12 -7.951394E-15 -8.307091E-20 -2.671188E-12  0.000000E+00  0.000000E+00  0.000000E+00  0.000000E+00  0.000000E+00  0.000000E+00  0.000000E+00  0.000000E+00  1.252048E-01  2.026096E-06  5.279744E-11  1.252048E-01                                                                                                                                                                                                                                                                                                                                                                                                                                                                                              
  7.600000E+02  1.250000E+02 -5.225000E+03  4.769430E-10 -2.055484E-13  1.897563E-16 -4.769429E-10  2.672782E-12 -1.154492E-15  1.065793E-18 -2.672782E-12  0.000000E+00  0.000000E+00  0.000000E+00  0.000000E+00  0.000000E+00  0.000000E+00  0.000000E+00  0.000000E+00  1.252052E-01  2.969182E-07  1.402210E-10  1.252052E-01                                                                                                                                                                                                                                                                                                                                                                                                                                                                                              
  7.800000E+02  1.250000E+02 -5.225000E+03  4.769572E-10  3.387686E-16  1.971652E-16 -4.769572E-10  2.672862E-12  1.902741E-18  1.107406E-18 -2.672862E-12  0.000000E+00  0.000000E+00  0.000000E+00  0.000000E+00  0.000000E+00  0.000000E+00  0.000000E+00  0.000000E+00  1.252052E-01  4.353236E-10  1.062343E-10  1.252052E-01                                                                                                                                                                                                                                                                                                                                                                                                                                                                                              
  8.000000E+02  1.250000E+02 -5.225000E+03  4.769431E-10  2.060812E-13  2.156368E-16 -4.769430E-10  2.672783E-12  1.157484E-15  1.211154E-18 -2.672783E-12  0.000000E+00  0.000000E+00  0.000000E+00  0.000000E+00  0.000000E+00  0.000000E+00  0.000000E+00  0.000000E+00  1.252052E-01 -2.965768E-07  1.526734E-10  1.252052E-01                                                                                                                                                                                                                                                                                                                                                                                                                                                                                              
  9.350000E+02  1.250000E+02 -5.225000E+03  4.766612E-10  1.415816E-12  4.460638E-16 -4.766591E-10  2.671204E-12  7.952131E-15  2.505380E-18 -2.671192E-12  0.000000E+00  0.000000E+00  0.000000E+00  0.000000E+00  0.000000E+00  0.000000E+00  0.000000E+00  0.000000E+00  1.252048E-01 -2.026326E-06  4.586497E-10  1.252048E-01                                                                                                                                                                                                                                                                                                                                                                                                                                                                                              
  1.185000E+03  1.250000E+02 -5.225000E+03  4.738194E-10  2.304620E-12 -2.460436E-18 -4.738138E-10  2.655280E-12  1.294422E-14 -1.381939E-20 -2.655248E-12  0.000000E+00  0.000000E+00  0.000000E+00  0.000000E+00  0.000000E+00  0.000000E+00  0.000000E+00  0.000000E+00  1.252019E-01 -3.279581E-06 -2.011631E-10  1.252019E-01                                                                                                                                                                                                                                                                                                                                                                                                                                                                                              
  1.435000E+03  1.250000E+02 -5.225000E+03  4.718636E-10  1.043070E-12 -9.860115E-18 -4.718624E-10  2.644319E-12  5.858553E-15 -5.538075E-20 -2.644312E-12  0.000000E+00  0.000000E+00  0.000000E+00  0.000000E+00  0.000000E+00  0.000000E+00  0.000000E+00  0.000000E+00  1.252001E-01 -1.475670E-06 -2.077684E-10  1.252001E-01                                                                                                                                                                                                                                                                                                                                                                                                                                                                                              
  1.250000E+02  1.250000E+02 -4.975000E+03  9.525151E-10 -1.340918E-12  2.170538E-16 -9.525141E-10  5.306771E-12 -7.481725E-15  1.211064E-18 -5.306766E-12  0.000000E+00  0.000000E+00  0.000000E+00  0.000000E+00  0.000000E+00  0.000000E+00  0.000000E+00  0.000000E+00  1.307336E-01  3.894187E-06 -4.548788E-10  1.307336E-01                                                                                                                                                                                                                                                                                                                                                                                                                                                                                              
  3.750000E+02  1.250000E+02 -4.975000E+03  9.561016E-10 -3.223335E-12  6.089606E-16 -9.560962E-10  5.326753E-12 -1.798477E-14  3.397728E-18 -5.326722E-12  0.000000E+00  0.000000E+00  0.000000E+00  0.000000E+00  0.000000E+00  0.000000E+00  0.000000E+00  0.000000E+00  1.307390E-01  9.380348E-06  3.236688E-11  1.307390E-01                                                                                                                                                                                                                                                                                                                                                                                                                                                                                              
  6.250000E+02  1.250000E+02 -4.975000E+03  9.623690E-10 -2.222915E-12  6.993415E-17 -9.623665E-10  5.361657E-12 -1.240287E-14  3.902010E-19 -5.361643E-12  0.000000E+00  0.000000E+00  0.000000E+00  0.000000E+00  0.000000E+00  0.000000E+00  0.000000E+00  0.000000E+00  1.307501E-01  6.480634E-06 -5.216160E-10  1.307501E-01                                                                                                                                                                                                                                                                                                                                                                                                                                                                                              
  7.600000E+02  1.250000E+02 -4.975000E+03  9.640972E-10 -4.561103E-13  2.677065E-16 -9.640971E-10  5.371270E-12 -2.544890E-15  1.493681E-18 -5.371269E-12  0.000000E+00  0.000000E+00  0.000000E+00  0.000000E+00  0.000000E+00  0.000000E+00  0.000000E+00  0.000000E+00  1.307545E-01  1.331059E-06 -2.259613E-11  1.307545E-01                                                                                                                                                                                                                                                                                                                                                                                                                                                                                              
  7.800000E+02  1.250000E+02 -4.975000E+03  9.641851E-10 -1.009840E-15  3.159344E-16 -9.641851E-10  5.371758E-12 -5.634453E-18  1.762772E-18 -5.371758E-12  0.000000E+00  0.000000E+00  0.000000E+00  0.000000E+00  0.000000E+00  0.000000E+00  0.000000E+00  0.000000E+00  1.307547E-01 -1.503940E-09 -7.974867E-12  1.307547E-01                                                                                                                                                                                                                                                                                                                                                                                                                                                                                              
  8.000000E+02  1.250000E+02 -4.975000E+03  9.640973E-10  4.543702E-13  3.689870E-16 -9.640972E-10  5.371270E-12  2.535181E-15  2.058781E-18 -5.371269E-12  0.000000E+00  0.000000E+00  0.000000E+00  0.000000E+00  0.000000E+00  0.000000E+00  0.000000E+00  0.000000E+00  1.307545E-01 -1.333672E-06  5.634987E-11  1.307545E-01                                                                                                                                                                                                                                                                                                                                                                                                                                                                                              
  9.350000E+02  1.250000E+02 -4.975000E+03  9.623692E-10  2.222776E-12  5.655466E-16 -9.623667E-10  5.361659E-12  1.240209E-14  3.155495E-18 -5.361644E-12  0.000000E+00  0.000000E+00  0.000000E+00  0.000000E+00  0.000000E+00  0.000000E+00  0.000000E+00  0.000000E+00  1.307501E-01 -6.481110E-06  2.553383E-10  1.307501E-01                                                                                                                                                                                                                                                                                                                                                                                                                                                                                              
  1.185000E+03  1.250000E+02 -4.975000E+03  9.561013E-10  3.223517E-12  3.111108E-16 -9.560959E-10  5.326751E-12  1.798578E-14  1.735859E-18 -5.326721E-12  0.000000E+00  0.000000E+00  0.000000E+00  0.000000E+00  0.000000E+00  0.000000E+00  0.000000E+00  0.000000E+00  1.307390E-01 -9.380471E-06 -1.927771E-10  1.307390E-01                                                                                                                                                                                                                                                                                                                                                                                                                                                                                              
  1.435000E+03  1.250000E+02 -4.975000E+03  9.525146E-10  1.340509E-12  4.811319E-16 -9.525137E-10  5.306769E-12  7.479444E-15  2.684503E-18 -5.306763E-12  0.000000E+00  0.000000E+00  0.000000E+00  0.000000E+00  0.000000E+00  0.000000E+00  0.000000E+00  0.000000E+00  1.307336E-01 -3.894944E-06  2.400398E-10  1.307336E-01                                                                                                                                                                                                                                                                                                                                                                                                                                                                                              
  1.250000E+02  1.250000E+02 -4.725000E+03  1.515415E-09 -1.330905E-12  2.411958E-16 -1.515414E-09  8.393669E-12 -7.375582E-15  1.336655E-18 -8.393665E-12  0.000000E+00  0.000000E+00  0.000000E+00  0.000000E+00  0.000000E+00  0.000000E+00  0.000000E+00  0.000000E+00  1.375280E-01  9.633953E-06 -4.630641E-10  1.375280E-01                                                                                                                                                                                                                                                                                                                                                                                                                                                                                              
  3.750000E+02  1.250000E+02 -4.725000E+03  1.520100E-09 -3.734369E-12  1.658926E-16 -1.520095E-09  8.419618E-12 -2.069503E-14  9.193398E-19 -8.419592E-12  0.000000E+00  0.000000E+00  0.000000E+00  0.000000E+00  0.000000E+00  0.000000E+00  0.000000E+00  0.000000E+00  1.375383E-01  2.688438E-05 -1.023619E-10  1.375383E-01                                                                                                                                                                                                                                                                                                                                                                                                                                                                                              
  6.250000E+02  1.250000E+02 -4.725000E+03  1.530592E-09 -3.821535E-12 -3.070882E-16 -1.530587E-09  8.477714E-12 -2.117806E-14 -1.701811E-18 -8.477688E-12  0.000000E+00  0.000000E+00  0.000000E+00  0.000000E+00  0.000000E+00  0.000000E+00  0.000000E+00  0.000000E+00  1.375714E-01  2.717823E-05 -9.112060E-10  1.375714E-01                                                                                                                                                                                                                                                                                                                                                                                                                                                                                              
  7.600000E+02  1.250000E+02 -4.725000E+03  1.544260E-09 -1.904819E-12 -1.894280E-16 -1.544258E-09  8.553270E-12 -1.055606E-14 -1.049765E-18 -8.553264E-12  0.000000E+00  0.000000E+00  0.000000E+00  0.000000E+00  0.000000E+00  0.000000E+00  0.000000E+00  0.000000E+00  1.376540E-01  1.333433E-05 -7.330503E-10  1.376540E-01                                                                                                                                                                                                                                                                                                                                                                                                                                                                                              
  7.800000E+02  1.250000E+02 -4.725000E+03  1.544933E-09 -1.912119E-16 -1.564848E-16 -1.544933E-09  8.556991E-12 -1.059651E-18 -8.672015E-19 -8.556991E-12  0.000000E+00  0.000000E+00  0.000000E+00  0.000000E+00  0.000000E+00  0.000000E+00  0.000000E+00  0.000000E+00  1.376580E-01  8.905859E-10 -8.082157E-10  1.376580E-01                                                                                                                                                                                                                                                                                                                                                                                                                                                                                              
  8.000000E+02  1.250000E+02 -4.725000E+03  1.544259E-09  1.904356E-12 -1.423625E-16 -1.544258E-09  8.553270E-12  1.055349E-14 -7.889392E-19 -8.553264E-12  0.000000E+00  0.000000E+00  0.000000E+00  0.000000E+00  0.000000E+00  0.000000E+00  0.000000E+00  0.000000E+00  1.376540E-01 -1.333361E-05 -8.666270E-10  1.376540E-01                                                                                                                                                                                                                                                                                                                                                                                                                                                                                              
  9.350000E+02  1.250000E+02 -4.725000E+03  1.530592E-09  3.821733E-12  5.412243E-17 -1.530587E-09  8.477711E-12  2.117916E-14  2.999338E-19 -8.477685E-12  0.000000E+00  0.000000E+00  0.000000E+00  0.000000E+00  0.000000E+00  0.000000E+00  0.000000E+00  0.000000E+00  1.375715E-01 -2.717797E-05 -8.786853E-10  1.375714E-01                                                                                                                                                                                                                                                                                                                                                                                                                                                                                              
  1.185000E+03  1.250000E+02 -4.725000E+03  1.520100E-09  3.734843E-12 -4.894638E-16 -1.520096E-09  8.419620E-12  2.069766E-14 -2.712499E-18 -8.419595E-12  0.000000E+00  0.000000E+00  0.000000E+00  0.000000E+00  0.000000E+00  0.000000E+00  0.000000E+00  0.000000E+00  1.375383E-01 -2.688445E-05 -1.277773E-09  1.375383E-01                                                                                                                                                                                                                                                                                                                                                                                                                                                                                              