Title="TOUGHREACT V3.30-OMP flowvector.tec: Liq & Gas Fluxes (kg/s/m^2), Pore Velocities (m/s), & Heat Fluxes (J/s/m2)"                                                                                                                                                                                                                                                                                                                                                                                                                                                                                                                                                                                                                                                                                                         
Variables= "X(m)"     "Y(m)"      "Z(m)"     "FluxLiq"   "FluxLiq_X"   "FluxLiq_Y"   "FluxLiq_Z"   "PorVelLiq"  "PorVelLiqX"  "PorVelLiqY"  "PorVelLiqZ"     "FluxGas"   "FluxGas_X"   "FluxGas_Y"   "FluxGas_Z"   "PorVelGas"  "PorVelGasX"  "PorVelGasY"  "PorVelGasZ"    "HeatFlux"  "HeatFlux_X"  "HeatFlux_Y"  "HeatFlux_Z"                                                                                                                                                                                                                                                                                                                                                                                                                                                                                                
Zone T= "1.00000000E+06 sec" I=     9 J=    10 K=    23 F=Point
  1.250000E+02  1.250000E+02 -5.425000E+03  1.840699E-07 -1.754708E-07 -5.865312E-14  5.560329E-08  1.039065E-09 -9.907202E-10 -3.311451E-16  3.132569E-10  0.000000E+00  0.000000E+00  0.000000E+00  0.000000E+00  0.000000E+00  0.000000E+00  0.000000E+00  0.000000E+00  1.936593E-01 -1.582542E-01 -5.308485E-08  1.116223E-01                                                                                                                                                                                                                                                                                                                                                                                                                                                                                              
  3.750000E+02  1.250000E+02 -5.425000E+03  4.697777E-07 -4.686488E-07 -2.140444E-14  3.254730E-08  2.652416E-09 -2.646070E-09 -1.208457E-16  1.833638E-10  0.000000E+00  0.000000E+00  0.000000E+00  0.000000E+00  0.000000E+00  0.000000E+00  0.000000E+00  0.000000E+00  4.323639E-01 -4.227142E-01 -1.931383E-08  9.083641E-02                                                                                                                                                                                                                                                                                                                                                                                                                                                                                              
  6.250000E+02  1.250000E+02 -5.425000E+03  4.859331E-07 -4.856550E-07 -4.128505E-14 -1.643839E-08  2.743732E-09 -2.742171E-09 -2.330880E-16 -9.252625E-11  0.000000E+00  0.000000E+00  0.000000E+00  0.000000E+00  0.000000E+00  0.000000E+00  0.000000E+00  0.000000E+00  4.406029E-01 -4.380869E-01 -3.735971E-08  4.701905E-02                                                                                                                                                                                                                                                                                                                                                                                                                                                                                              
  7.600000E+02  1.250000E+02 -5.425000E+03  2.632591E-07 -2.606692E-07  2.971877E-14 -3.683659E-08  1.486421E-09 -1.471885E-09  1.678028E-16 -2.073648E-10  0.000000E+00  0.000000E+00  0.000000E+00  0.000000E+00  0.000000E+00  0.000000E+00  0.000000E+00  0.000000E+00  2.368967E-01 -2.351069E-01  2.931025E-08  2.906567E-02                                                                                                                                                                                                                                                                                                                                                                                                                                                                                              
  7.800000E+02  1.250000E+02 -5.425000E+03  3.791325E-08  4.490685E-13  3.611181E-14 -3.791325E-08  2.134426E-10  2.535705E-15  2.039138E-16 -2.134426E-10  0.000000E+00  0.000000E+00  0.000000E+00  0.000000E+00  0.000000E+00  0.000000E+00  0.000000E+00  0.000000E+00  2.811851E-02  4.479698E-07  3.225337E-08  2.811851E-02                                                                                                                                                                                                                                                                                                                                                                                                                                                                                              
  8.000000E+02  1.250000E+02 -5.425000E+03  2.632599E-07  2.606700E-07  4.502969E-14 -3.683663E-08  1.486425E-09  1.471890E-09  2.542536E-16 -2.073650E-10  0.000000E+00  0.000000E+00  0.000000E+00  0.000000E+00  0.000000E+00  0.000000E+00  0.000000E+00  0.000000E+00  2.368975E-01  2.351077E-01  4.085500E-08  2.906563E-02                                                                                                                                                                                                                                                                                                                                                                                                                                                                                              
  9.350000E+02  1.250000E+02 -5.425000E+03  4.859332E-07  4.856550E-07  1.058126E-13 -1.643860E-08  2.743732E-09  2.742172E-09  5.973989E-16 -9.252744E-11  0.000000E+00  0.000000E+00  0.000000E+00  0.000000E+00  0.000000E+00  0.000000E+00  0.000000E+00  0.000000E+00  4.406029E-01  4.380869E-01  9.737181E-08  4.701886E-02                                                                                                                                                                                                                                                                                                                                                                                                                                                                                              
  1.185000E+03  1.250000E+02 -5.425000E+03  4.697774E-07  4.686486E-07  1.966396E-13  3.254743E-08  2.652414E-09  2.646069E-09  1.110192E-15  1.833645E-10  0.000000E+00  0.000000E+00  0.000000E+00  0.000000E+00  0.000000E+00  0.000000E+00  0.000000E+00  0.000000E+00  4.323638E-01  4.227140E-01  1.783441E-07  9.083653E-02                                                                                                                                                                                                                                                                                                                                                                                                                                                                                              
  1.435000E+03  1.250000E+02 -5.425000E+03  1.840701E-07  1.754709E-07  1.210181E-13  5.560350E-08  1.039066E-09  9.907208E-10  6.832468E-16  3.132581E-10  0.000000E+00  0.000000E+00  0.000000E+00  0.000000E+00  0.000000E+00  0.000000E+00  0.000000E+00  0.000000E+00  1.936595E-01  1.582543E-01  1.102158E-07  1.116225E-01                                                                                                                                                                                                                                                                                                                                                                                                                                                                                              
  1.250000E+02  1.250000E+02 -5.225000E+03  2.184751E-07 -1.907142E-07 -9.584763E-14  1.065808E-07  1.227212E-09 -1.071216E-09 -5.383368E-16  5.987868E-10  0.000000E+00  0.000000E+00  0.000000E+00  0.000000E+00  0.000000E+00  0.000000E+00  0.000000E+00  0.000000E+00  2.771848E-01 -1.678135E-01 -8.499343E-08  2.206128E-01                                                                                                                                                                                                                                                                                                                                                                                                                                                                                              
  3.750000E+02  1.250000E+02 -5.225000E+03  5.220995E-07 -5.178325E-07 -7.144192E-14  6.661362E-08  2.932632E-09 -2.908664E-09 -4.012608E-16  3.741722E-10  0.000000E+00  0.000000E+00  0.000000E+00  0.000000E+00  0.000000E+00  0.000000E+00  0.000000E+00  0.000000E+00  4.918163E-01 -4.557131E-01 -6.420667E-08  1.849564E-01                                                                                                                                                                                                                                                                                                                                                                                                                                                                                              
  6.250000E+02  1.250000E+02 -5.225000E+03  5.474304E-07 -5.467375E-07  9.803597E-14 -2.753383E-08  3.075029E-09 -3.071140E-09  5.506311E-16 -1.546051E-10  0.000000E+00  0.000000E+00  0.000000E+00  0.000000E+00  0.000000E+00  0.000000E+00  0.000000E+00  0.000000E+00  4.918294E-01 -4.811951E-01  8.630596E-08  1.017223E-01                                                                                                                                                                                                                                                                                                                                                                                                                                                                                              
  7.600000E+02  1.250000E+02 -5.225000E+03  3.061740E-07 -2.975595E-07  8.408189E-14 -7.211669E-08  1.719851E-09 -1.671538E-09  4.723090E-16 -4.047838E-10  0.000000E+00  0.000000E+00  0.000000E+00  0.000000E+00  0.000000E+00  0.000000E+00  0.000000E+00  0.000000E+00  2.693681E-01 -2.618554E-01  7.673940E-08  6.317355E-02                                                                                                                                                                                                                                                                                                                                                                                                                                                                                              
  7.800000E+02  1.250000E+02 -5.225000E+03  7.446143E-08  8.763687E-14  6.393833E-14 -7.446143E-08  4.179769E-10  4.923205E-16  3.591860E-16 -4.179769E-10  0.000000E+00  0.000000E+00  0.000000E+00  0.000000E+00  0.000000E+00  0.000000E+00  0.000000E+00  0.000000E+00  6.114692E-02  7.619338E-08  5.471218E-08  6.114692E-02                                                                                                                                                                                                                                                                                                                                                                                                                                                                                              
  8.000000E+02  1.250000E+02 -5.225000E+03  3.061741E-07  2.975597E-07  5.465556E-14 -7.211669E-08  1.719852E-09  1.671539E-09  3.070139E-16 -4.047838E-10  0.000000E+00  0.000000E+00  0.000000E+00  0.000000E+00  0.000000E+00  0.000000E+00  0.000000E+00  0.000000E+00  2.693682E-01  2.618556E-01  4.895180E-08  6.317355E-02                                                                                                                                                                                                                                                                                                                                                                                                                                                                                              
  9.350000E+02  1.250000E+02 -5.225000E+03  5.474304E-07  5.467376E-07 -7.699238E-15 -2.753387E-08  3.075030E-09  3.071140E-09 -4.324372E-17 -1.546053E-10  0.000000E+00  0.000000E+00  0.000000E+00  0.000000E+00  0.000000E+00  0.000000E+00  0.000000E+00  0.000000E+00  4.918294E-01  4.811951E-01 -6.481561E-09  1.017222E-01                                                                                                                                                                                                                                                                                                                                                                                                                                                                                              
  1.185000E+03  1.250000E+02 -5.225000E+03  5.220997E-07  5.178327E-07 -1.281380E-14  6.661384E-08  2.932633E-09  2.908665E-09 -7.197001E-17  3.741734E-10  0.000000E+00  0.000000E+00  0.000000E+00  0.000000E+00  0.000000E+00  0.000000E+00  0.000000E+00  0.000000E+00  4.918165E-01  4.557132E-01 -1.127880E-08  1.849566E-01                                                                                                                                                                                                                                                                                                                                                                                                                                                                                              
  1.435000E+03  1.250000E+02 -5.225000E+03  2.184753E-07  1.907144E-07 -4.182330E-14  1.065809E-07  1.227213E-09  1.071217E-09 -2.349043E-16  5.987872E-10  0.000000E+00  0.000000E+00  0.000000E+00  0.000000E+00  0.000000E+00  0.000000E+00  0.000000E+00  0.000000E+00  2.771849E-01  1.678137E-01 -3.747800E-08  2.206129E-01                                                                                                                                                                                                                                                                                                                                                                                                                                                                                              
  1.250000E+02  1.250000E+02 -4.975000E+03  2.060565E-07 -2.028898E-07 -1.172046E-13  3.598623E-08  1.150000E-09 -1.132081E-09 -6.539423E-16  2.022155E-10  0.000000E+00  0.000000E+00  0.000000E+00  0.000000E+00  0.000000E+00  0.000000E+00  0.000000E+00  0.000000E+00  2.382353E-01 -1.727270E-01 -1.013629E-07  1.640776E-01                                                                                                                                                                                                                                                                                                                                                                                                                                                                                              
  3.750000E+02  1.250000E+02 -4.975000E+03  5.686984E-07 -5.669414E-07 -2.250867E-13  4.466814E-08  3.173346E-09 -3.163500E-09 -1.255873E-15  2.497912E-10  0.000000E+00  0.000000E+00  0.000000E+00  0.000000E+00  0.000000E+00  0.000000E+00  0.000000E+00  0.000000E+00  5.119780E-01 -4.827349E-01 -1.939098E-07  1.705537E-01                                                                                                                                                                                                                                                                                                                                                                                                                                                                                              
  6.250000E+02  1.250000E+02 -4.975000E+03  6.236268E-07 -6.236155E-07  2.525325E-13  3.757655E-09  3.479965E-09 -3.479904E-09  1.409012E-15  2.055618E-11  0.000000E+00  0.000000E+00  0.000000E+00  0.000000E+00  0.000000E+00  0.000000E+00  0.000000E+00  0.000000E+00  5.478891E-01 -5.310535E-01  2.155304E-07  1.347764E-01                                                                                                                                                                                                                                                                                                                                                                                                                                                                                              
  7.600000E+02  1.250000E+02 -4.975000E+03  3.525985E-07 -3.517367E-07  4.097027E-14 -2.463689E-08  1.967744E-09 -1.962885E-09  2.286251E-16 -1.381978E-10  0.000000E+00  0.000000E+00  0.000000E+00  0.000000E+00  0.000000E+00  0.000000E+00  0.000000E+00  0.000000E+00  3.192669E-01 -2.994962E-01  3.380545E-08  1.106047E-01                                                                                                                                                                                                                                                                                                                                                                                                                                                                                              
  7.800000E+02  1.250000E+02 -4.975000E+03  2.619427E-08  5.283229E-13  2.452343E-14 -2.619427E-08  1.469175E-10  2.948489E-15  1.368603E-16 -1.469175E-10  0.000000E+00  0.000000E+00  0.000000E+00  0.000000E+00  0.000000E+00  0.000000E+00  0.000000E+00  0.000000E+00  1.092800E-01  4.431890E-07  2.031876E-08  1.092800E-01                                                                                                                                                                                                                                                                                                                                                                                                                                                                                              
  8.000000E+02  1.250000E+02 -4.975000E+03  3.525993E-07  3.517376E-07  7.107278E-15 -2.463691E-08  1.967749E-09  1.962890E-09  3.966051E-17 -1.381979E-10  0.000000E+00  0.000000E+00  0.000000E+00  0.000000E+00  0.000000E+00  0.000000E+00  0.000000E+00  0.000000E+00  3.192676E-01  2.994969E-01  5.095187E-09  1.106047E-01                                                                                                                                                                                                                                                                                                                                                                                                                                                                                              
  9.350000E+02  1.250000E+02 -4.975000E+03  6.236270E-07  6.236157E-07 -5.384800E-14  3.757586E-09  3.479966E-09  3.479905E-09 -3.004464E-16  2.055580E-11  0.000000E+00  0.000000E+00  0.000000E+00  0.000000E+00  0.000000E+00  0.000000E+00  0.000000E+00  0.000000E+00  5.478893E-01  5.310537E-01 -4.683189E-08  1.347764E-01                                                                                                                                                                                                                                                                                                                                                                                                                                                                                              
  1.185000E+03  1.250000E+02 -4.975000E+03  5.686982E-07  5.669413E-07 -2.395809E-13  4.466816E-08  3.173345E-09  3.163499E-09 -1.336743E-15  2.497913E-10  0.000000E+00  0.000000E+00  0.000000E+00  0.000000E+00  0.000000E+00  0.000000E+00  0.000000E+00  0.000000E+00  5.119779E-01  4.827347E-01 -2.057236E-07  1.705537E-01                                                                                                                                                                                                                                                                                                                                                                                                                                                                                              
  1.435000E+03  1.250000E+02 -4.975000E+03  2.060564E-07  2.028897E-07 -1.123471E-13  3.598601E-08  1.149999E-09  1.132081E-09 -6.268397E-16  2.022142E-10  0.000000E+00  0.000000E+00  0.000000E+00  0.000000E+00  0.000000E+00  0.000000E+00  0.000000E+00  0.000000E+00  2.382352E-01  1.727269E-01 -9.642996E-08  1.640774E-01                                                                                                                                                                                                                                                                                                                                                                                                                                                                                              
  1.250000E+02  1.250000E+02 -4.725000E+03  7.992337E-07 -1.724080E-07  2.349309E-14 -7.804165E-07  4.416887E-09 -9.554574E-10  1.301877E-16 -4.312307E-09  0.000000E+00  0.000000E+00  0.000000E+00  0.000000E+00  0.000000E+00  0.000000E+00  0.000000E+00  0.000000E+00  5.056486E-01 -1.416086E-01  1.843071E-08 -4.854147E-01                                                                                                                                                                                                                                                                                                                                                                                                                                                                                              
  3.750000E+02  1.250000E+02 -4.725000E+03  6.692133E-07 -5.230605E-07 -7.088504E-14 -4.174376E-07  3.704321E-09 -2.898871E-09 -3.928167E-16 -2.306195E-09  0.000000E+00  0.000000E+00  0.000000E+00  0.000000E+00  0.000000E+00  0.000000E+00  0.000000E+00  0.000000E+00  4.716030E-01 -4.296936E-01 -5.877758E-08 -1.943524E-01                                                                                                                                                                                                                                                                                                                                                                                                                                                                                              
  6.250000E+02  1.250000E+02 -4.725000E+03  6.718878E-07 -6.111634E-07 -1.241182E-13  2.791280E-07  3.722745E-09 -3.387397E-09 -6.878378E-16  1.544141E-09  0.000000E+00  0.000000E+00  0.000000E+00  0.000000E+00  0.000000E+00  0.000000E+00  0.000000E+00  0.000000E+00  6.228926E-01 -5.021255E-01 -1.034806E-07  3.685989E-01                                                                                                                                                                                                                                                                                                                                                                                                                                                                                              
  7.600000E+02  1.250000E+02 -4.725000E+03  6.592385E-07 -3.537796E-07 -6.880153E-14  5.562691E-07  3.648961E-09 -1.961004E-09 -3.813458E-16  3.077235E-09  0.000000E+00  0.000000E+00  0.000000E+00  0.000000E+00  0.000000E+00  0.000000E+00  0.000000E+00  0.000000E+00  6.634721E-01 -2.906195E-01 -5.781596E-08  5.964357E-01                                                                                                                                                                                                                                                                                                                                                                                                                                                                                              
  7.800000E+02  1.250000E+02 -4.725000E+03  5.707013E-07 -1.032082E-13 -4.558872E-14  5.707013E-07  3.157427E-09 -5.721263E-16 -2.527139E-16  3.157427E-09  0.000000E+00  0.000000E+00  0.000000E+00  0.000000E+00  0.000000E+00  0.000000E+00  0.000000E+00  0.000000E+00  6.082956E-01 -8.213106E-08 -3.837702E-08  6.082956E-01                                                                                                                                                                                                                                                                                                                                                                                                                                                                                              
  8.000000E+02  1.250000E+02 -4.725000E+03  6.592384E-07  3.537795E-07 -4.142357E-14  5.562691E-07  3.648960E-09  1.961004E-09 -2.295982E-16  3.077235E-09  0.000000E+00  0.000000E+00  0.000000E+00  0.000000E+00  0.000000E+00  0.000000E+00  0.000000E+00  0.000000E+00  6.634720E-01  2.906195E-01 -3.616796E-08  5.964356E-01                                                                                                                                                                                                                                                                                                                                                                                                                                                                                              
  9.350000E+02  1.250000E+02 -4.725000E+03  6.718877E-07  6.111635E-07 -3.740038E-14  2.791278E-07  3.722745E-09  3.387397E-09 -2.072653E-16  1.544139E-09  0.000000E+00  0.000000E+00  0.000000E+00  0.000000E+00  0.000000E+00  0.000000E+00  0.000000E+00  0.000000E+00  6.228925E-01  5.021255E-01 -3.172633E-08  3.685987E-01                                                                                                                                                                                                                                                                                                                                                                                                                                                                                              
  1.185000E+03  1.250000E+02 -4.725000E+03  6.692134E-07  5.230605E-07  3.302722E-14 -4.174377E-07  3.704321E-09  2.898871E-09  1.830237E-16 -2.306196E-09  0.000000E+00  0.000000E+00  0.000000E+00  0.000000E+00  0.000000E+00  0.000000E+00  0.000000E+00  0.000000E+00  4.716030E-01  4.296935E-01  2.715509E-08 -1.943525E-01                                                                                                                                                                                                                                                                                                                                                                                                                                                                                              