Title="TOUGHREACT V3.30-OMP flowvector.tec: Liq & Gas Fluxes (kg/s/m^2), Pore Velocities (m/s), & Heat Fluxes (J/s/m2)"                                                                                                                                                                                                                                                                                                                                                                                                                                                                                                                                                                                                                                                                                                         
Variables= "X(m)"     "Y(m)"      "Z(m)"     "FluxLiq"   "FluxLiq_X"   "FluxLiq_Y"   "FluxLiq_Z"   "PorVelLiq"  "PorVelLiqX"  "PorVelLiqY"  "PorVelLiqZ"     "FluxGas"   "FluxGas_X"   "FluxGas_Y"   "FluxGas_Z"   "PorVelGas"  "PorVelGasX"  "PorVelGasY"  "PorVelGasZ"    "HeatFlux"  "HeatFlux_X"  "HeatFlux_Y"  "HeatFlux_Z"                                                                                                                                                                                                                                                                                                                                                                                                                                                                                                
Zone T= "3.15569000E+08 sec" I=     9 J=    10 K=    23 F=Point
  1.250000E+02  1.250000E+02 -5.425000E+03  4.493052E-09 -1.452844E-09 -2.234218E-15  4.251677E-09  2.532007E-11 -8.203932E-12 -1.261472E-17  2.395416E-11  0.000000E+00  0.000000E+00  0.000000E+00  0.000000E+00  0.000000E+00  0.000000E+00  0.000000E+00  0.000000E+00  6.532412E-02 -1.303285E-03 -2.564731E-09  6.531112E-02                                                                                                                                                                                                                                                                                                                                                                                                                                                                                              
  3.750000E+02  1.250000E+02 -5.425000E+03  5.352149E-09 -3.256757E-09 -3.996799E-15  4.247239E-09  3.018300E-11 -1.839228E-11 -2.256915E-17  2.393194E-11  0.000000E+00  0.000000E+00  0.000000E+00  0.000000E+00  0.000000E+00  0.000000E+00  0.000000E+00  0.000000E+00  6.537368E-02 -2.919316E-03 -3.828387E-09  6.530846E-02                                                                                                                                                                                                                                                                                                                                                                                                                                                                                              
  6.250000E+02  1.250000E+02 -5.425000E+03  4.715070E-09 -2.136579E-09 -4.320058E-15  4.203203E-09  2.658512E-11 -1.206758E-11 -2.439929E-17  2.368844E-11  0.000000E+00  0.000000E+00  0.000000E+00  0.000000E+00  0.000000E+00  0.000000E+00  0.000000E+00  0.000000E+00  6.529883E-02 -1.900273E-03 -4.140441E-09  6.527117E-02                                                                                                                                                                                                                                                                                                                                                                                                                                                                                              
  7.600000E+02  1.250000E+02 -5.425000E+03  4.204835E-09 -4.519524E-10 -4.306831E-15  4.180475E-09  2.370288E-11 -2.553145E-12 -2.432936E-17  2.356497E-11  0.000000E+00  0.000000E+00  0.000000E+00  0.000000E+00  0.000000E+00  0.000000E+00  0.000000E+00  0.000000E+00  6.525322E-02 -3.854135E-04 -2.842139E-09  6.525208E-02                                                                                                                                                                                                                                                                                                                                                                                                                                                                                              
  7.800000E+02  1.250000E+02 -5.425000E+03  4.178174E-09 -9.481703E-15 -4.248015E-15  4.178174E-09  2.355401E-11 -5.356688E-17 -2.399915E-17  2.355401E-11  0.000000E+00  0.000000E+00  0.000000E+00  0.000000E+00  0.000000E+00  0.000000E+00  0.000000E+00  0.000000E+00  6.525010E-02 -8.091133E-10 -2.852092E-09  6.525010E-02                                                                                                                                                                                                                                                                                                                                                                                                                                                                                              
  8.000000E+02  1.250000E+02 -5.425000E+03  4.204833E-09  4.519372E-10 -4.172448E-15  4.180475E-09  2.370287E-11  2.553059E-12 -2.357023E-17  2.356497E-11  0.000000E+00  0.000000E+00  0.000000E+00  0.000000E+00  0.000000E+00  0.000000E+00  0.000000E+00  0.000000E+00  6.525322E-02  3.854074E-04 -3.102437E-09  6.525208E-02                                                                                                                                                                                                                                                                                                                                                                                                                                                                                              
  9.350000E+02  1.250000E+02 -5.425000E+03  4.715064E-09  2.136570E-09 -3.542537E-15  4.203201E-09  2.658509E-11  1.206753E-11 -2.000792E-17  2.368843E-11  0.000000E+00  0.000000E+00  0.000000E+00  0.000000E+00  0.000000E+00  0.000000E+00  0.000000E+00  0.000000E+00  6.529882E-02  1.900262E-03 -2.082038E-09  6.527117E-02                                                                                                                                                                                                                                                                                                                                                                                                                                                                                              
  1.185000E+03  1.250000E+02 -5.425000E+03  5.352150E-09  3.256758E-09 -2.115933E-15  4.247239E-09  3.018301E-11  1.839229E-11 -1.194826E-17  2.393194E-11  0.000000E+00  0.000000E+00  0.000000E+00  0.000000E+00  0.000000E+00  0.000000E+00  0.000000E+00  0.000000E+00  6.537368E-02  2.919315E-03 -9.210540E-10  6.530847E-02                                                                                                                                                                                                                                                                                                                                                                                                                                                                                              
  1.435000E+03  1.250000E+02 -5.425000E+03  4.493051E-09  1.452849E-09 -4.559389E-15  4.251674E-09  2.532007E-11  8.203959E-12 -2.574298E-17  2.395414E-11  0.000000E+00  0.000000E+00  0.000000E+00  0.000000E+00  0.000000E+00  0.000000E+00  0.000000E+00  0.000000E+00  6.532412E-02  1.303290E-03 -3.495965E-09  6.531112E-02                                                                                                                                                                                                                                                                                                                                                                                                                                                                                              
  1.250000E+02  1.250000E+02 -5.225000E+03  1.513765E-08 -1.429726E-09 -2.684100E-15  1.506998E-08  8.493014E-11 -8.031452E-12 -1.507590E-17  8.454953E-11  0.000000E+00  0.000000E+00  0.000000E+00  0.000000E+00  0.000000E+00  0.000000E+00  0.000000E+00  0.000000E+00  1.389745E-01 -1.249983E-03 -3.271165E-09  1.389689E-01                                                                                                                                                                                                                                                                                                                                                                                                                                                                                              
  3.750000E+02  1.250000E+02 -5.225000E+03  1.555120E-08 -3.233962E-09 -4.194404E-15  1.521122E-08  8.726365E-11 -1.816899E-11 -2.356194E-17  8.535123E-11  0.000000E+00  0.000000E+00  0.000000E+00  0.000000E+00  0.000000E+00  0.000000E+00  0.000000E+00  0.000000E+00  1.391252E-01 -2.824779E-03 -5.175641E-09  1.390965E-01                                                                                                                                                                                                                                                                                                                                                                                                                                                                                              
  6.250000E+02  1.250000E+02 -5.225000E+03  1.542954E-08 -2.156831E-09 -2.972919E-15  1.527805E-08  8.659498E-11 -1.211913E-11 -1.670404E-17  8.574273E-11  0.000000E+00  0.000000E+00  0.000000E+00  0.000000E+00  0.000000E+00  0.000000E+00  0.000000E+00  0.000000E+00  1.391738E-01 -1.867168E-03 -3.361372E-09  1.391613E-01                                                                                                                                                                                                                                                                                                                                                                                                                                                                                              
  7.600000E+02  1.250000E+02 -5.225000E+03  1.523964E-08 -4.802809E-10 -3.311426E-15  1.523207E-08  8.554574E-11 -2.699262E-12 -1.861028E-17  8.550314E-11  0.000000E+00  0.000000E+00  0.000000E+00  0.000000E+00  0.000000E+00  0.000000E+00  0.000000E+00  0.000000E+00  1.391242E-01 -3.974355E-04 -2.058649E-09  1.391236E-01                                                                                                                                                                                                                                                                                                                                                                                                                                                                                              
  7.800000E+02  1.250000E+02 -5.225000E+03  1.522552E-08 -1.066785E-14 -3.297470E-15  1.522552E-08  8.547459E-11 -5.995952E-17 -1.853371E-17  8.547459E-11  0.000000E+00  0.000000E+00  0.000000E+00  0.000000E+00  0.000000E+00  0.000000E+00  0.000000E+00  0.000000E+00  1.391180E-01 -1.130759E-08 -2.210851E-09  1.391180E-01                                                                                                                                                                                                                                                                                                                                                                                                                                                                                              
  8.000000E+02  1.250000E+02 -5.225000E+03  1.523964E-08  4.802627E-10 -3.300873E-15  1.523207E-08  8.554573E-11  2.699159E-12 -1.855097E-17  8.550314E-11  0.000000E+00  0.000000E+00  0.000000E+00  0.000000E+00  0.000000E+00  0.000000E+00  0.000000E+00  0.000000E+00  1.391242E-01  3.974165E-04 -2.353822E-09  1.391236E-01                                                                                                                                                                                                                                                                                                                                                                                                                                                                                              
  9.350000E+02  1.250000E+02 -5.225000E+03  1.542953E-08  2.156821E-09 -3.331952E-15  1.527804E-08  8.659492E-11  1.211907E-11 -1.872136E-17  8.574269E-11  0.000000E+00  0.000000E+00  0.000000E+00  0.000000E+00  0.000000E+00  0.000000E+00  0.000000E+00  0.000000E+00  1.391738E-01  1.867158E-03 -3.109040E-09  1.391613E-01                                                                                                                                                                                                                                                                                                                                                                                                                                                                                              
  1.185000E+03  1.250000E+02 -5.225000E+03  1.555119E-08  3.233962E-09 -4.081644E-15  1.521121E-08  8.726362E-11  1.816899E-11 -2.292852E-17  8.535120E-11  0.000000E+00  0.000000E+00  0.000000E+00  0.000000E+00  0.000000E+00  0.000000E+00  0.000000E+00  0.000000E+00  1.391252E-01  2.824781E-03 -3.756797E-09  1.390965E-01                                                                                                                                                                                                                                                                                                                                                                                                                                                                                              
  1.435000E+03  1.250000E+02 -5.225000E+03  1.513764E-08  1.429729E-09 -5.568445E-15  1.506997E-08  8.493007E-11  8.031467E-12 -3.127652E-17  8.454947E-11  0.000000E+00  0.000000E+00  0.000000E+00  0.000000E+00  0.000000E+00  0.000000E+00  0.000000E+00  0.000000E+00  1.389745E-01  1.249988E-03 -5.957216E-09  1.389689E-01                                                                                                                                                                                                                                                                                                                                                                                                                                                                                              
  1.250000E+02  1.250000E+02 -4.975000E+03  2.712530E-08 -1.248706E-09 -4.579008E-15  2.709655E-08  1.513189E-10 -6.968118E-12 -2.554853E-17  1.511584E-10  0.000000E+00  0.000000E+00  0.000000E+00  0.000000E+00  0.000000E+00  0.000000E+00  0.000000E+00  0.000000E+00  1.549218E-01 -1.052952E-03 -5.150910E-09  1.549182E-01                                                                                                                                                                                                                                                                                                                                                                                                                                                                                              
  3.750000E+02  1.250000E+02 -4.975000E+03  2.795834E-08 -2.892418E-09 -3.703770E-15  2.780832E-08  1.559824E-10 -1.614279E-11 -2.066803E-17  1.551448E-10  0.000000E+00  0.000000E+00  0.000000E+00  0.000000E+00  0.000000E+00  0.000000E+00  0.000000E+00  0.000000E+00  1.555533E-01 -2.434990E-03 -5.227410E-09  1.555343E-01                                                                                                                                                                                                                                                                                                                                                                                                                                                                                              
  6.250000E+02  1.250000E+02 -4.975000E+03  2.862591E-08 -2.010662E-09 -3.804674E-15  2.855521E-08  1.597380E-10 -1.122343E-11 -2.123644E-17  1.593432E-10  0.000000E+00  0.000000E+00  0.000000E+00  0.000000E+00  0.000000E+00  0.000000E+00  0.000000E+00  0.000000E+00  1.561979E-01 -1.673104E-03 -2.590078E-09  1.561889E-01                                                                                                                                                                                                                                                                                                                                                                                                                                                                                              
  7.600000E+02  1.250000E+02 -4.975000E+03  2.856236E-08 -5.008260E-10 -3.681036E-15  2.855797E-08  1.594231E-10 -2.796303E-12 -2.055197E-17  1.593985E-10  0.000000E+00  0.000000E+00  0.000000E+00  0.000000E+00  0.000000E+00  0.000000E+00  0.000000E+00  0.000000E+00  1.562001E-01 -3.964315E-04 -3.510446E-09  1.561996E-01                                                                                                                                                                                                                                                                                                                                                                                                                                                                                              
  7.800000E+02  1.250000E+02 -4.975000E+03  2.854894E-08 -2.064380E-14 -3.684915E-15  2.854894E-08  1.593660E-10 -1.152723E-16 -2.057608E-17  1.593660E-10  0.000000E+00  0.000000E+00  0.000000E+00  0.000000E+00  0.000000E+00  0.000000E+00  0.000000E+00  0.000000E+00  1.561923E-01 -1.748934E-08 -3.624054E-09  1.561923E-01                                                                                                                                                                                                                                                                                                                                                                                                                                                                                              
  8.000000E+02  1.250000E+02 -4.975000E+03  2.856235E-08  5.007874E-10 -3.698214E-15  2.855796E-08  1.594231E-10  2.796088E-12 -2.064788E-17  1.593985E-10  0.000000E+00  0.000000E+00  0.000000E+00  0.000000E+00  0.000000E+00  0.000000E+00  0.000000E+00  0.000000E+00  1.562001E-01  3.963996E-04 -3.703550E-09  1.561996E-01                                                                                                                                                                                                                                                                                                                                                                                                                                                                                              
  9.350000E+02  1.250000E+02 -4.975000E+03  2.862590E-08  2.010641E-09 -4.276794E-15  2.855520E-08  1.597379E-10  1.122332E-11 -2.387166E-17  1.593432E-10  0.000000E+00  0.000000E+00  0.000000E+00  0.000000E+00  0.000000E+00  0.000000E+00  0.000000E+00  0.000000E+00  1.561979E-01  1.673086E-03 -4.015820E-09  1.561889E-01                                                                                                                                                                                                                                                                                                                                                                                                                                                                                              
  1.185000E+03  1.250000E+02 -4.975000E+03  2.795833E-08  2.892416E-09 -4.307277E-15  2.780831E-08  1.559823E-10  1.614278E-11 -2.403576E-17  1.551447E-10  0.000000E+00  0.000000E+00  0.000000E+00  0.000000E+00  0.000000E+00  0.000000E+00  0.000000E+00  0.000000E+00  1.555533E-01  2.434987E-03 -4.935324E-09  1.555343E-01                                                                                                                                                                                                                                                                                                                                                                                                                                                                                              
  1.435000E+03  1.250000E+02 -4.975000E+03  2.712528E-08  1.248706E-09 -4.706311E-15  2.709653E-08  1.513188E-10  6.968120E-12 -2.625881E-17  1.511583E-10  0.000000E+00  0.000000E+00  0.000000E+00  0.000000E+00  0.000000E+00  0.000000E+00  0.000000E+00  0.000000E+00  1.549217E-01  1.052952E-03 -5.062198E-09  1.549182E-01                                                                                                                                                                                                                                                                                                                                                                                                                                                                                              
  1.250000E+02  1.250000E+02 -4.725000E+03  3.642662E-08 -6.568752E-10 -3.037520E-15  3.642070E-08  2.019810E-10 -3.640622E-12 -1.683269E-17  2.019482E-10  0.000000E+00  0.000000E+00  0.000000E+00  0.000000E+00  0.000000E+00  0.000000E+00  0.000000E+00  0.000000E+00  1.691554E-01 -5.254910E-04 -3.083363E-09  1.691546E-01                                                                                                                                                                                                                                                                                                                                                                                                                                                                                              
  3.750000E+02  1.250000E+02 -4.725000E+03  3.832268E-08 -1.621170E-09 -2.889635E-15  3.828837E-08  2.125143E-10 -8.986607E-12 -1.601531E-17  2.123242E-10  0.000000E+00  0.000000E+00  0.000000E+00  0.000000E+00  0.000000E+00  0.000000E+00  0.000000E+00  0.000000E+00  1.707216E-01 -1.289050E-03 -2.753273E-09  1.707168E-01                                                                                                                                                                                                                                                                                                                                                                                                                                                                                              
  6.250000E+02  1.250000E+02 -4.725000E+03  4.084271E-08 -1.241851E-09 -1.110525E-15  4.082383E-08  2.265343E-10 -6.885210E-12 -6.156669E-18  2.264297E-10  0.000000E+00  0.000000E+00  0.000000E+00  0.000000E+00  0.000000E+00  0.000000E+00  0.000000E+00  0.000000E+00  1.728547E-01 -9.567822E-04 -2.245740E-09  1.728520E-01                                                                                                                                                                                                                                                                                                                                                                                                                                                                                              
  7.600000E+02  1.250000E+02 -4.725000E+03  4.109930E-08 -3.854363E-10 -1.837782E-15  4.109749E-08  2.280201E-10 -2.137571E-12 -1.019163E-17  2.280101E-10  0.000000E+00  0.000000E+00  0.000000E+00  0.000000E+00  0.000000E+00  0.000000E+00  0.000000E+00  0.000000E+00  1.732771E-01 -2.678884E-04 -2.621752E-09  1.732769E-01                                                                                                                                                                                                                                                                                                                                                                                                                                                                                              
  7.800000E+02  1.250000E+02 -4.725000E+03  4.109715E-08 -2.621445E-14 -1.945800E-15  4.109715E-08  2.280388E-10 -1.453967E-16 -1.079225E-17  2.280388E-10  0.000000E+00  0.000000E+00  0.000000E+00  0.000000E+00  0.000000E+00  0.000000E+00  0.000000E+00  0.000000E+00  1.732990E-01 -2.235930E-08 -2.566278E-09  1.732990E-01                                                                                                                                                                                                                                                                                                                                                                                                                                                                                              
  8.000000E+02  1.250000E+02 -4.725000E+03  4.109930E-08  3.853871E-10 -2.021929E-15  4.109749E-08  2.280201E-10  2.137298E-12 -1.121284E-17  2.280101E-10  0.000000E+00  0.000000E+00  0.000000E+00  0.000000E+00  0.000000E+00  0.000000E+00  0.000000E+00  0.000000E+00  1.732771E-01  2.678475E-04 -2.441993E-09  1.732769E-01                                                                                                                                                                                                                                                                                                                                                                                                                                                                                              
  9.350000E+02  1.250000E+02 -4.725000E+03  4.084273E-08  1.241822E-09 -2.652672E-15  4.082385E-08  2.265345E-10  6.885045E-12 -1.470621E-17  2.264298E-10  0.000000E+00  0.000000E+00  0.000000E+00  0.000000E+00  0.000000E+00  0.000000E+00  0.000000E+00  0.000000E+00  1.728547E-01  9.567577E-04 -3.226920E-09  1.728520E-01                                                                                                                                                                                                                                                                                                                                                                                                                                                                                              
  1.185000E+03  1.250000E+02 -4.725000E+03  3.832271E-08  1.621161E-09 -2.906222E-15  3.828841E-08  2.125144E-10  8.986560E-12 -1.610724E-17  2.123244E-10  0.000000E+00  0.000000E+00  0.000000E+00  0.000000E+00  0.000000E+00  0.000000E+00  0.000000E+00  0.000000E+00  1.707217E-01  1.289042E-03 -2.106828E-09  1.707168E-01                                                                                                                                                                                                                                                                                                                                                                                                                                                                                              