Title="TOUGHREACT V3.30-OMP flowvector.tec: Liq & Gas Fluxes (kg/s/m^2), Pore Velocities (m/s), & Heat Fluxes (J/s/m2)"                                                                                                                                                                                                                                                                                                                                                                                                                                                                                                                                                                                                                                                                                                         
Variables= "X(m)"     "Y(m)"      "Z(m)"     "FluxLiq"   "FluxLiq_X"   "FluxLiq_Y"   "FluxLiq_Z"   "PorVelLiq"  "PorVelLiqX"  "PorVelLiqY"  "PorVelLiqZ"     "FluxGas"   "FluxGas_X"   "FluxGas_Y"   "FluxGas_Z"   "PorVelGas"  "PorVelGasX"  "PorVelGasY"  "PorVelGasZ"    "HeatFlux"  "HeatFlux_X"  "HeatFlux_Y"  "HeatFlux_Z"                                                                                                                                                                                                                                                                                                                                                                                                                                                                                                
Zone T= "5.18400000E+05 sec" I=     9 J=    10 K=    23 F=Point
  1.250000E+02  1.250000E+02 -5.425000E+03  1.850741E-07 -1.747368E-07 -5.275011E-14  6.098757E-08  1.044696E-09 -9.865767E-10 -2.978182E-16  3.435916E-10  0.000000E+00  0.000000E+00  0.000000E+00  0.000000E+00  0.000000E+00  0.000000E+00  0.000000E+00  0.000000E+00  1.959643E-01 -1.575912E-01 -4.776494E-08  1.164775E-01                                                                                                                                                                                                                                                                                                                                                                                                                                                                                              
  3.750000E+02  1.250000E+02 -5.425000E+03  4.714566E-07 -4.700814E-07 -1.197735E-14  3.598323E-08  2.661889E-09 -2.654159E-09 -6.762207E-17  2.027213E-10  0.000000E+00  0.000000E+00  0.000000E+00  0.000000E+00  0.000000E+00  0.000000E+00  0.000000E+00  0.000000E+00  4.342852E-01 -4.240045E-01 -1.082832E-08  9.393502E-02                                                                                                                                                                                                                                                                                                                                                                                                                                                                                              
  6.250000E+02  1.250000E+02 -5.425000E+03  6.095353E-07 -6.092593E-07 -9.349684E-14 -1.834068E-08  3.441611E-09 -3.440062E-09 -5.278658E-16 -1.032334E-10  0.000000E+00  0.000000E+00  0.000000E+00  0.000000E+00  0.000000E+00  0.000000E+00  0.000000E+00  0.000000E+00  5.514706E-01 -5.496032E-01 -8.447702E-08  4.534476E-02                                                                                                                                                                                                                                                                                                                                                                                                                                                                                              
  7.600000E+02  1.250000E+02 -5.425000E+03  4.313334E-07 -4.279533E-07 -1.151601E-14 -5.389324E-08  2.435369E-09 -2.416400E-09 -6.502101E-17 -3.033692E-10  0.000000E+00  0.000000E+00  0.000000E+00  0.000000E+00  0.000000E+00  0.000000E+00  0.000000E+00  0.000000E+00  3.862901E-01 -3.860345E-01 -8.110892E-09  1.405078E-02                                                                                                                                                                                                                                                                                                                                                                                                                                                                                              
  7.800000E+02  1.250000E+02 -5.425000E+03  5.582118E-08  4.701905E-13 -4.367756E-16 -5.582118E-08  3.142452E-10  2.654829E-15 -2.466252E-18 -3.142452E-10  0.000000E+00  0.000000E+00  0.000000E+00  0.000000E+00  0.000000E+00  0.000000E+00  0.000000E+00  0.000000E+00  1.235409E-02  4.632105E-07 -5.952463E-10  1.235409E-02                                                                                                                                                                                                                                                                                                                                                                                                                                                                                              
  8.000000E+02  1.250000E+02 -5.425000E+03  4.313343E-07  4.279542E-07  1.886867E-14 -5.389328E-08  2.435375E-09  2.416406E-09  1.065351E-16 -3.033695E-10  0.000000E+00  0.000000E+00  0.000000E+00  0.000000E+00  0.000000E+00  0.000000E+00  0.000000E+00  0.000000E+00  3.862910E-01  3.860354E-01  1.728314E-08  1.405073E-02                                                                                                                                                                                                                                                                                                                                                                                                                                                                                              
  9.350000E+02  1.250000E+02 -5.425000E+03  6.095354E-07  6.092594E-07  1.343389E-13 -1.834093E-08  3.441612E-09  3.440063E-09  7.584524E-16 -1.032349E-10  0.000000E+00  0.000000E+00  0.000000E+00  0.000000E+00  0.000000E+00  0.000000E+00  0.000000E+00  0.000000E+00  5.514707E-01  5.496033E-01  1.230786E-07  4.534453E-02                                                                                                                                                                                                                                                                                                                                                                                                                                                                                              
  1.185000E+03  1.250000E+02 -5.425000E+03  4.714563E-07  4.700811E-07  2.391655E-13  3.598338E-08  2.661888E-09  2.654157E-09  1.350288E-15  2.027222E-10  0.000000E+00  0.000000E+00  0.000000E+00  0.000000E+00  0.000000E+00  0.000000E+00  0.000000E+00  0.000000E+00  4.342850E-01  4.240043E-01  2.166716E-07  9.393516E-02                                                                                                                                                                                                                                                                                                                                                                                                                                                                                              
  1.435000E+03  1.250000E+02 -5.425000E+03  1.850743E-07  1.747369E-07  1.543740E-13  6.098785E-08  1.044697E-09  9.865774E-10  8.715694E-16  3.435931E-10  0.000000E+00  0.000000E+00  0.000000E+00  0.000000E+00  0.000000E+00  0.000000E+00  0.000000E+00  0.000000E+00  1.959646E-01  1.575914E-01  1.402839E-07  1.164778E-01                                                                                                                                                                                                                                                                                                                                                                                                                                                                                              
  1.250000E+02  1.250000E+02 -5.225000E+03  2.229859E-07 -1.915215E-07 -1.187649E-13  1.142026E-07  1.252584E-09 -1.075753E-09 -6.670566E-16  6.416551E-10  0.000000E+00  0.000000E+00  0.000000E+00  0.000000E+00  0.000000E+00  0.000000E+00  0.000000E+00  0.000000E+00  2.830672E-01 -1.685226E-01 -1.051586E-07  2.274361E-01                                                                                                                                                                                                                                                                                                                                                                                                                                                                                              
  3.750000E+02  1.250000E+02 -5.225000E+03  5.298528E-07 -5.249928E-07 -8.652025E-14  7.159981E-08  2.976190E-09 -2.948886E-09 -4.859511E-16  4.022135E-10  0.000000E+00  0.000000E+00  0.000000E+00  0.000000E+00  0.000000E+00  0.000000E+00  0.000000E+00  0.000000E+00  4.993346E-01 -4.620126E-01 -7.749492E-08  1.894187E-01                                                                                                                                                                                                                                                                                                                                                                                                                                                                                              
  6.250000E+02  1.250000E+02 -5.225000E+03  6.956757E-07 -6.950341E-07  8.145459E-14 -2.987206E-08  3.907729E-09 -3.904127E-09  4.574989E-16 -1.677513E-10  0.000000E+00  0.000000E+00  0.000000E+00  0.000000E+00  0.000000E+00  0.000000E+00  0.000000E+00  0.000000E+00  6.198073E-01 -6.117399E-01  7.166824E-08  9.967670E-02                                                                                                                                                                                                                                                                                                                                                                                                                                                                                              
  7.600000E+02  1.250000E+02 -5.225000E+03  5.044734E-07 -4.931671E-07  1.332903E-13 -1.062054E-07  2.833676E-09 -2.770272E-09  7.486909E-16 -5.960813E-10  0.000000E+00  0.000000E+00  0.000000E+00  0.000000E+00  0.000000E+00  0.000000E+00  0.000000E+00  0.000000E+00  4.353545E-01 -4.340520E-01  1.200286E-07  3.365104E-02                                                                                                                                                                                                                                                                                                                                                                                                                                                                                              
  7.800000E+02  1.250000E+02 -5.225000E+03  1.103349E-07 -6.685360E-15  1.350454E-13 -1.103349E-07  6.193031E-10 -3.754437E-17  7.586058E-16 -6.193031E-10  0.000000E+00  0.000000E+00  0.000000E+00  0.000000E+00  0.000000E+00  0.000000E+00  0.000000E+00  0.000000E+00  3.007958E-02 -9.056203E-09  1.173147E-07  3.007958E-02                                                                                                                                                                                                                                                                                                                                                                                                                                                                                              
  8.000000E+02  1.250000E+02 -5.225000E+03  5.044735E-07  4.931673E-07  1.254457E-13 -1.062054E-07  2.833677E-09  2.770273E-09  7.046280E-16 -5.960813E-10  0.000000E+00  0.000000E+00  0.000000E+00  0.000000E+00  0.000000E+00  0.000000E+00  0.000000E+00  0.000000E+00  4.353546E-01  4.340521E-01  1.117033E-07  3.365103E-02                                                                                                                                                                                                                                                                                                                                                                                                                                                                                              
  9.350000E+02  1.250000E+02 -5.225000E+03  6.956759E-07  6.950342E-07 -3.141376E-14 -2.987208E-08  3.907730E-09  3.904128E-09 -1.764389E-16 -1.677514E-10  0.000000E+00  0.000000E+00  0.000000E+00  0.000000E+00  0.000000E+00  0.000000E+00  0.000000E+00  0.000000E+00  6.198074E-01  6.117400E-01 -2.732723E-08  9.967668E-02                                                                                                                                                                                                                                                                                                                                                                                                                                                                                              
  1.185000E+03  1.250000E+02 -5.225000E+03  5.298530E-07  5.249930E-07  6.425427E-15  7.160009E-08  2.976191E-09  2.948887E-09  3.608916E-17  4.022150E-10  0.000000E+00  0.000000E+00  0.000000E+00  0.000000E+00  0.000000E+00  0.000000E+00  0.000000E+00  0.000000E+00  4.993349E-01  4.620127E-01  5.719599E-09  1.894190E-01                                                                                                                                                                                                                                                                                                                                                                                                                                                                                              
  1.435000E+03  1.250000E+02 -5.225000E+03  2.229861E-07  1.915217E-07 -4.686750E-14  1.142027E-07  1.252585E-09  1.075754E-09 -2.632365E-16  6.416558E-10  0.000000E+00  0.000000E+00  0.000000E+00  0.000000E+00  0.000000E+00  0.000000E+00  0.000000E+00  0.000000E+00  2.830674E-01  1.685228E-01 -4.187397E-08  2.274362E-01                                                                                                                                                                                                                                                                                                                                                                                                                                                                                              
  1.250000E+02  1.250000E+02 -4.975000E+03  2.147673E-07 -2.043482E-07 -1.353067E-13  6.608181E-08  1.198645E-09 -1.140224E-09 -7.549469E-16  3.696475E-10  0.000000E+00  0.000000E+00  0.000000E+00  0.000000E+00  0.000000E+00  0.000000E+00  0.000000E+00  0.000000E+00  2.571054E-01 -1.739671E-01 -1.167852E-07  1.893110E-01                                                                                                                                                                                                                                                                                                                                                                                                                                                                                              
  3.750000E+02  1.250000E+02 -4.975000E+03  5.802208E-07 -5.765569E-07 -3.062308E-13  6.510254E-08  3.237633E-09 -3.217158E-09 -1.708623E-15  3.635373E-10  0.000000E+00  0.000000E+00  0.000000E+00  0.000000E+00  0.000000E+00  0.000000E+00  0.000000E+00  0.000000E+00  5.256848E-01 -4.909203E-01 -2.630069E-07  1.879942E-01                                                                                                                                                                                                                                                                                                                                                                                                                                                                                              
  6.250000E+02  1.250000E+02 -4.975000E+03  8.013245E-07 -8.013116E-07  3.190032E-13 -4.541086E-09  4.471525E-09 -4.471452E-09  1.779884E-15 -2.562757E-11  0.000000E+00  0.000000E+00  0.000000E+00  0.000000E+00  0.000000E+00  0.000000E+00  0.000000E+00  0.000000E+00  6.942597E-01 -6.824125E-01  2.721154E-07  1.277093E-01                                                                                                                                                                                                                                                                                                                                                                                                                                                                                              
  7.600000E+02  1.250000E+02 -4.975000E+03  5.893431E-07 -5.854785E-07 -2.534665E-14 -6.738188E-08  3.288786E-09 -3.267167E-09 -1.414335E-16 -3.764737E-10  0.000000E+00  0.000000E+00  0.000000E+00  0.000000E+00  0.000000E+00  0.000000E+00  0.000000E+00  0.000000E+00  5.041566E-01 -4.985994E-01 -2.260129E-08  7.464963E-02                                                                                                                                                                                                                                                                                                                                                                                                                                                                                              
  7.800000E+02  1.250000E+02 -4.975000E+03  7.086845E-08  5.909289E-13 -4.918011E-14 -7.086845E-08  3.959721E-10  3.297727E-15 -2.744478E-16 -3.959721E-10  0.000000E+00  0.000000E+00  0.000000E+00  0.000000E+00  0.000000E+00  0.000000E+00  0.000000E+00  0.000000E+00  7.171983E-02  4.899705E-07 -4.250180E-08  7.171983E-02                                                                                                                                                                                                                                                                                                                                                                                                                                                                                              
  8.000000E+02  1.250000E+02 -4.975000E+03  5.893442E-07  5.854796E-07 -7.645010E-14 -6.738188E-08  3.288793E-09  3.267174E-09 -4.265891E-16 -3.764737E-10  0.000000E+00  0.000000E+00  0.000000E+00  0.000000E+00  0.000000E+00  0.000000E+00  0.000000E+00  0.000000E+00  5.041575E-01  4.986003E-01 -6.576031E-08  7.464963E-02                                                                                                                                                                                                                                                                                                                                                                                                                                                                                              
  9.350000E+02  1.250000E+02 -4.975000E+03  8.013248E-07  8.013120E-07 -7.061983E-14 -4.541131E-09  4.471527E-09  4.471453E-09 -3.940245E-16 -2.562781E-11  0.000000E+00  0.000000E+00  0.000000E+00  0.000000E+00  0.000000E+00  0.000000E+00  0.000000E+00  0.000000E+00  6.942600E-01  6.824128E-01 -6.109644E-08  1.277092E-01                                                                                                                                                                                                                                                                                                                                                                                                                                                                                              
  1.185000E+03  1.250000E+02 -4.975000E+03  5.802206E-07  5.765567E-07 -2.985720E-13  6.510260E-08  3.237632E-09  3.217157E-09 -1.665890E-15  3.635376E-10  0.000000E+00  0.000000E+00  0.000000E+00  0.000000E+00  0.000000E+00  0.000000E+00  0.000000E+00  0.000000E+00  5.256847E-01  4.909201E-01 -2.559805E-07  1.879943E-01                                                                                                                                                                                                                                                                                                                                                                                                                                                                                              
  1.435000E+03  1.250000E+02 -4.975000E+03  2.147672E-07  2.043482E-07 -1.302809E-13  6.608156E-08  1.198644E-09  1.140223E-09 -7.269052E-16  3.696461E-10  0.000000E+00  0.000000E+00  0.000000E+00  0.000000E+00  0.000000E+00  0.000000E+00  0.000000E+00  0.000000E+00  2.571052E-01  1.739670E-01 -1.117010E-07  1.893108E-01                                                                                                                                                                                                                                                                                                                                                                                                                                                                                              
  1.250000E+02  1.250000E+02 -4.725000E+03  8.897955E-07 -1.829933E-07  2.803730E-14 -8.707753E-07  4.916348E-09 -1.014136E-09  1.553727E-16 -4.810614E-09  0.000000E+00  0.000000E+00  0.000000E+00  0.000000E+00  0.000000E+00  0.000000E+00  0.000000E+00  0.000000E+00  5.765930E-01 -1.503001E-01  2.207760E-08 -5.566591E-01                                                                                                                                                                                                                                                                                                                                                                                                                                                                                              
  3.750000E+02  1.250000E+02 -4.725000E+03  7.538109E-07 -5.675889E-07 -9.215667E-14 -4.960582E-07  4.171624E-09 -3.145676E-09 -5.107026E-16 -2.739922E-09  0.000000E+00  0.000000E+00  0.000000E+00  0.000000E+00  0.000000E+00  0.000000E+00  0.000000E+00  0.000000E+00  5.320364E-01 -4.662748E-01 -7.632148E-08 -2.562237E-01                                                                                                                                                                                                                                                                                                                                                                                                                                                                                              
  6.250000E+02  1.250000E+02 -4.725000E+03  8.766670E-07 -8.433277E-07 -1.889265E-13  2.394645E-07  4.858181E-09 -4.674140E-09 -1.046986E-15  1.324517E-09  0.000000E+00  0.000000E+00  0.000000E+00  0.000000E+00  0.000000E+00  0.000000E+00  0.000000E+00  0.000000E+00  7.699996E-01 -6.929304E-01 -1.567083E-07  3.357780E-01                                                                                                                                                                                                                                                                                                                                                                                                                                                                                              
  7.600000E+02  1.250000E+02 -4.725000E+03  9.497061E-07 -6.272611E-07 -4.935864E-14  7.130815E-07  5.257412E-09 -3.476748E-09 -2.735618E-16  3.943679E-09  0.000000E+00  0.000000E+00  0.000000E+00  0.000000E+00  0.000000E+00  0.000000E+00  0.000000E+00  0.000000E+00  8.895112E-01 -5.153919E-01 -4.137977E-08  7.249837E-01                                                                                                                                                                                                                                                                                                                                                                                                                                                                                              
  7.800000E+02  1.250000E+02 -4.725000E+03  7.385016E-07 -8.526142E-14 -1.638438E-14  7.385016E-07  4.084704E-09 -4.726171E-16 -9.081758E-17  4.084704E-09  0.000000E+00  0.000000E+00  0.000000E+00  0.000000E+00  0.000000E+00  0.000000E+00  0.000000E+00  0.000000E+00  7.458855E-01 -6.614413E-08 -1.454831E-08  7.458855E-01                                                                                                                                                                                                                                                                                                                                                                                                                                                                                              
  8.000000E+02  1.250000E+02 -4.725000E+03  9.497061E-07  6.272611E-07 -2.949932E-14  7.130815E-07  5.257412E-09  3.476748E-09 -1.634949E-16  3.943679E-09  0.000000E+00  0.000000E+00  0.000000E+00  0.000000E+00  0.000000E+00  0.000000E+00  0.000000E+00  0.000000E+00  8.895112E-01  5.153919E-01 -2.630557E-08  7.249836E-01                                                                                                                                                                                                                                                                                                                                                                                                                                                                                              
  9.350000E+02  1.250000E+02 -4.725000E+03  8.766670E-07  8.433279E-07 -5.837232E-14  2.394642E-07  4.858182E-09  4.674140E-09 -3.234855E-16  1.324515E-09  0.000000E+00  0.000000E+00  0.000000E+00  0.000000E+00  0.000000E+00  0.000000E+00  0.000000E+00  0.000000E+00  7.699996E-01  6.929305E-01 -4.898064E-08  3.357776E-01                                                                                                                                                                                                                                                                                                                                                                                                                                                                                              
  1.185000E+03  1.250000E+02 -4.725000E+03  7.538110E-07  5.675888E-07  2.314790E-14 -4.960584E-07  4.171625E-09  3.145676E-09  1.282782E-16 -2.739923E-09  0.000000E+00  0.000000E+00  0.000000E+00  0.000000E+00  0.000000E+00  0.000000E+00  0.000000E+00  0.000000E+00  5.320365E-01  4.662748E-01  1.892744E-08 -2.562239E-01                                                                                                                                                                                                                                                                                                                                                                                                                                                                                              