Title="TOUGHREACT V3.30-OMP flowvector.tec: Liq & Gas Fluxes (kg/s/m^2), Pore Velocities (m/s), & Heat Fluxes (J/s/m2)"                                                                                                                                                                                                                                                                                                                                                                                                                                                                                                                                                                                                                                                                                                         
Variables= "X(m)"     "Y(m)"      "Z(m)"     "FluxLiq"   "FluxLiq_X"   "FluxLiq_Y"   "FluxLiq_Z"   "PorVelLiq"  "PorVelLiqX"  "PorVelLiqY"  "PorVelLiqZ"     "FluxGas"   "FluxGas_X"   "FluxGas_Y"   "FluxGas_Z"   "PorVelGas"  "PorVelGasX"  "PorVelGasY"  "PorVelGasZ"    "HeatFlux"  "HeatFlux_X"  "HeatFlux_Y"  "HeatFlux_Z"                                                                                                                                                                                                                                                                                                                                                                                                                                                                                                
Zone T= "1.00000000E+10 sec" I=     9 J=    10 K=    23 F=Point
  1.250000E+02  1.250000E+02 -5.425000E+03  1.341058E-10 -2.640893E-12  1.370514E-15 -1.340798E-10  7.548382E-13 -1.491255E-14  7.738022E-18 -7.546909E-13  0.000000E+00  0.000000E+00  0.000000E+00  0.000000E+00  0.000000E+00  0.000000E+00  0.000000E+00  0.000000E+00  6.142991E-02  4.322169E-06  4.904638E-10  6.142991E-02                                                                                                                                                                                                                                                                                                                                                                                                                                                                                              
  3.750000E+02  1.250000E+02 -5.425000E+03  1.352919E-10 -5.894141E-12  1.934533E-15 -1.351634E-10  7.616239E-13 -3.328679E-14  1.092389E-17 -7.608962E-13  0.000000E+00  0.000000E+00  0.000000E+00  0.000000E+00  0.000000E+00  0.000000E+00  0.000000E+00  0.000000E+00  6.142995E-02  1.067750E-05  9.384138E-10  6.142995E-02                                                                                                                                                                                                                                                                                                                                                                                                                                                                                              
  6.250000E+02  1.250000E+02 -5.425000E+03  1.369103E-10 -3.614337E-12  5.515859E-15 -1.368626E-10  7.709172E-13 -2.041407E-14  3.115338E-17 -7.706469E-13  0.000000E+00  0.000000E+00  0.000000E+00  0.000000E+00  0.000000E+00  0.000000E+00  0.000000E+00  0.000000E+00  6.143002E-02  7.209925E-06  5.003298E-09  6.143002E-02                                                                                                                                                                                                                                                                                                                                                                                                                                                                                              
  7.600000E+02  1.250000E+02 -5.425000E+03  1.369181E-10 -4.693287E-13  4.262848E-15 -1.369173E-10  7.711437E-13 -2.651348E-15  2.408135E-17 -7.711392E-13  0.000000E+00  0.000000E+00  0.000000E+00  0.000000E+00  0.000000E+00  0.000000E+00  0.000000E+00  0.000000E+00  6.143009E-02  1.153336E-06  4.000880E-09  6.143009E-02                                                                                                                                                                                                                                                                                                                                                                                                                                                                                              
  7.800000E+02  1.250000E+02 -5.425000E+03  1.368894E-10  2.899481E-14  3.948670E-15 -1.368894E-10  7.710611E-13  1.638095E-16  2.230847E-17 -7.710611E-13  0.000000E+00  0.000000E+00  0.000000E+00  0.000000E+00  0.000000E+00  0.000000E+00  0.000000E+00  0.000000E+00  6.143012E-02  2.640635E-08  3.745627E-09  6.143012E-02                                                                                                                                                                                                                                                                                                                                                                                                                                                                                              
  8.000000E+02  1.250000E+02 -5.425000E+03  1.369198E-10  5.212878E-13  3.615301E-15 -1.369188E-10  7.711529E-13  2.944886E-15  2.042328E-17 -7.711473E-13  0.000000E+00  0.000000E+00  0.000000E+00  0.000000E+00  0.000000E+00  0.000000E+00  0.000000E+00  0.000000E+00  6.143008E-02 -1.106323E-06  3.438552E-09  6.143008E-02                                                                                                                                                                                                                                                                                                                                                                                                                                                                                              
  9.350000E+02  1.250000E+02 -5.425000E+03  1.369193E-10  3.639078E-12  1.578502E-15 -1.368710E-10  7.709679E-13  2.055384E-14  8.915325E-18 -7.706939E-13  0.000000E+00  0.000000E+00  0.000000E+00  0.000000E+00  0.000000E+00  0.000000E+00  0.000000E+00  0.000000E+00  6.143001E-02 -7.188661E-06  1.520165E-09  6.143001E-02                                                                                                                                                                                                                                                                                                                                                                                                                                                                                              
  1.185000E+03  1.250000E+02 -5.425000E+03  1.352972E-10  5.892727E-12  6.115051E-16 -1.351688E-10  7.616538E-13  3.327881E-14  3.453037E-18 -7.609264E-13  0.000000E+00  0.000000E+00  0.000000E+00  0.000000E+00  0.000000E+00  0.000000E+00  0.000000E+00  0.000000E+00  6.142994E-02 -1.067915E-05  3.438467E-10  6.142994E-02                                                                                                                                                                                                                                                                                                                                                                                                                                                                                              
  1.435000E+03  1.250000E+02 -5.425000E+03  1.341097E-10  2.637702E-12  4.643053E-16 -1.340837E-10  7.548599E-13  1.489453E-14  2.621502E-18 -7.547129E-13  0.000000E+00  0.000000E+00  0.000000E+00  0.000000E+00  0.000000E+00  0.000000E+00  0.000000E+00  0.000000E+00  6.142991E-02 -4.324480E-06  5.904896E-11  6.142991E-02                                                                                                                                                                                                                                                                                                                                                                                                                                                                                              
  1.250000E+02  1.250000E+02 -5.225000E+03  5.035604E-10 -1.810540E-12  1.039000E-15 -5.035571E-10  2.821832E-12 -1.017053E-14  5.835662E-18 -2.821814E-12  0.000000E+00  0.000000E+00  0.000000E+00  0.000000E+00  0.000000E+00  0.000000E+00  0.000000E+00  0.000000E+00  1.254233E-01  5.899013E-06  5.528469E-11  1.254233E-01                                                                                                                                                                                                                                                                                                                                                                                                                                                                                              
  3.750000E+02  1.250000E+02 -5.225000E+03  5.068293E-10 -4.073480E-12  1.460166E-15 -5.068130E-10  2.840575E-12 -2.288542E-14  8.202335E-18 -2.840483E-12  0.000000E+00  0.000000E+00  0.000000E+00  0.000000E+00  0.000000E+00  0.000000E+00  0.000000E+00  0.000000E+00  1.254239E-01  1.444660E-05  5.738438E-10  1.254239E-01                                                                                                                                                                                                                                                                                                                                                                                                                                                                                              
  6.250000E+02  1.250000E+02 -5.225000E+03  5.119082E-10 -2.519489E-12  2.756323E-15 -5.119020E-10  2.869799E-12 -1.415672E-14  1.548708E-17 -2.869764E-12  0.000000E+00  0.000000E+00  0.000000E+00  0.000000E+00  0.000000E+00  0.000000E+00  0.000000E+00  0.000000E+00  1.254252E-01  9.675342E-06  2.155453E-09  1.254252E-01                                                                                                                                                                                                                                                                                                                                                                                                                                                                                              
  7.600000E+02  1.250000E+02 -5.225000E+03  5.120342E-10 -3.354336E-13  2.296102E-15 -5.120341E-10  2.871292E-12 -1.885212E-15  1.290430E-17 -2.871291E-12  0.000000E+00  0.000000E+00  0.000000E+00  0.000000E+00  0.000000E+00  0.000000E+00  0.000000E+00  0.000000E+00  1.254257E-01  1.512492E-06  2.038577E-09  1.254257E-01                                                                                                                                                                                                                                                                                                                                                                                                                                                                                              
  7.800000E+02  1.250000E+02 -5.225000E+03  5.119108E-10  1.399473E-14  2.132023E-15 -5.119108E-10  2.870937E-12  7.865970E-17  1.198339E-17 -2.870937E-12  0.000000E+00  0.000000E+00  0.000000E+00  0.000000E+00  0.000000E+00  0.000000E+00  0.000000E+00  0.000000E+00  1.254258E-01  1.097364E-08  1.942757E-09  1.254258E-01                                                                                                                                                                                                                                                                                                                                                                                                                                                                                              
  8.000000E+02  1.250000E+02 -5.225000E+03  5.120358E-10  3.616186E-13  1.921083E-15 -5.120357E-10  2.871301E-12  2.032382E-15  1.079666E-17 -2.871301E-12  0.000000E+00  0.000000E+00  0.000000E+00  0.000000E+00  0.000000E+00  0.000000E+00  0.000000E+00  0.000000E+00  1.254257E-01 -1.491986E-06  1.744008E-09  1.254257E-01                                                                                                                                                                                                                                                                                                                                                                                                                                                                                              
  9.350000E+02  1.250000E+02 -5.225000E+03  5.119185E-10  2.535668E-12  6.490394E-16 -5.119122E-10  2.869857E-12  1.424765E-14  3.646788E-18 -2.869822E-12  0.000000E+00  0.000000E+00  0.000000E+00  0.000000E+00  0.000000E+00  0.000000E+00  0.000000E+00  0.000000E+00  1.254252E-01 -9.662536E-06  7.149272E-10  1.254252E-01                                                                                                                                                                                                                                                                                                                                                                                                                                                                                              
  1.185000E+03  1.250000E+02 -5.225000E+03  5.068404E-10  4.075685E-12 -8.255501E-16 -5.068240E-10  2.840637E-12  2.289781E-14 -4.637443E-18 -2.840545E-12  0.000000E+00  0.000000E+00  0.000000E+00  0.000000E+00  0.000000E+00  0.000000E+00  0.000000E+00  0.000000E+00  1.254239E-01 -1.444385E-05 -1.116760E-09  1.254239E-01                                                                                                                                                                                                                                                                                                                                                                                                                                                                                              
  1.435000E+03  1.250000E+02 -5.225000E+03  5.035710E-10  1.808756E-12 -4.154826E-16 -5.035678E-10  2.821892E-12  1.016050E-14 -2.333606E-18 -2.821874E-12  0.000000E+00  0.000000E+00  0.000000E+00  0.000000E+00  0.000000E+00  0.000000E+00  0.000000E+00  0.000000E+00  1.254233E-01 -5.899531E-06 -1.364109E-09  1.254233E-01                                                                                                                                                                                                                                                                                                                                                                                                                                                                                              
  1.250000E+02  1.250000E+02 -4.975000E+03  1.010723E-09 -1.598474E-12  5.771296E-16 -1.010722E-09  5.630621E-12 -8.919559E-15  3.219928E-18 -5.630614E-12  0.000000E+00  0.000000E+00  0.000000E+00  0.000000E+00  0.000000E+00  0.000000E+00  0.000000E+00  0.000000E+00  1.310706E-01  8.477155E-06 -1.820866E-10  1.310706E-01                                                                                                                                                                                                                                                                                                                                                                                                                                                                                              
  3.750000E+02  1.250000E+02 -4.975000E+03  1.015768E-09 -3.842495E-12  2.335805E-15 -1.015761E-09  5.659555E-12 -2.144466E-14  1.303389E-17 -5.659515E-12  0.000000E+00  0.000000E+00  0.000000E+00  0.000000E+00  0.000000E+00  0.000000E+00  0.000000E+00  0.000000E+00  1.310732E-01  2.122171E-05  1.457739E-09  1.310732E-01                                                                                                                                                                                                                                                                                                                                                                                                                                                                                              
  6.250000E+02  1.250000E+02 -4.975000E+03  1.024110E-09 -2.605696E-12  3.430719E-15 -1.024107E-09  5.707709E-12 -1.454438E-14  1.914869E-17 -5.707690E-12  0.000000E+00  0.000000E+00  0.000000E+00  0.000000E+00  0.000000E+00  0.000000E+00  0.000000E+00  0.000000E+00  1.310797E-01  1.470360E-05  2.611135E-09  1.310797E-01                                                                                                                                                                                                                                                                                                                                                                                                                                                                                              
  7.600000E+02  1.250000E+02 -4.975000E+03  1.025250E-09 -4.777282E-13  2.940204E-15 -1.025250E-09  5.715798E-12 -2.667302E-15  1.641556E-17 -5.715798E-12  0.000000E+00  0.000000E+00  0.000000E+00  0.000000E+00  0.000000E+00  0.000000E+00  0.000000E+00  0.000000E+00  1.310844E-01  2.626295E-06  2.301639E-09  1.310844E-01                                                                                                                                                                                                                                                                                                                                                                                                                                                                                              
  7.800000E+02  1.250000E+02 -4.975000E+03  1.024999E-09  1.098502E-14  2.794651E-15 -1.024999E-09  5.715200E-12  6.133839E-17  1.560483E-17 -5.715200E-12  0.000000E+00  0.000000E+00  0.000000E+00  0.000000E+00  0.000000E+00  0.000000E+00  0.000000E+00  0.000000E+00  1.310849E-01  9.630631E-09  2.105164E-09  1.310849E-01                                                                                                                                                                                                                                                                                                                                                                                                                                                                                              
  8.000000E+02  1.250000E+02 -4.975000E+03  1.025250E-09  4.972467E-13  2.662529E-15 -1.025250E-09  5.715800E-12  2.776284E-15  1.486527E-17 -5.715800E-12  0.000000E+00  0.000000E+00  0.000000E+00  0.000000E+00  0.000000E+00  0.000000E+00  0.000000E+00  0.000000E+00  1.310844E-01 -2.609778E-06  1.981536E-09  1.310844E-01                                                                                                                                                                                                                                                                                                                                                                                                                                                                                              
  9.350000E+02  1.250000E+02 -4.975000E+03  1.024114E-09  2.614247E-12  1.935210E-15 -1.024110E-09  5.707728E-12  1.459212E-14  1.080145E-17 -5.707709E-12  0.000000E+00  0.000000E+00  0.000000E+00  0.000000E+00  0.000000E+00  0.000000E+00  0.000000E+00  0.000000E+00  1.310797E-01 -1.469706E-05  1.196541E-09  1.310797E-01                                                                                                                                                                                                                                                                                                                                                                                                                                                                                              
  1.185000E+03  1.250000E+02 -4.975000E+03  1.015778E-09  3.839875E-12  1.119713E-15 -1.015771E-09  5.659610E-12  2.143004E-14  6.248048E-18 -5.659570E-12  0.000000E+00  0.000000E+00  0.000000E+00  0.000000E+00  0.000000E+00  0.000000E+00  0.000000E+00  0.000000E+00  1.310732E-01 -2.122419E-05  1.256323E-10  1.310732E-01                                                                                                                                                                                                                                                                                                                                                                                                                                                                                              
  1.435000E+03  1.250000E+02 -4.975000E+03  1.010732E-09  1.595837E-12  1.155973E-15 -1.010731E-09  5.630672E-12  8.904844E-15  6.449414E-18 -5.630665E-12  0.000000E+00  0.000000E+00  0.000000E+00  0.000000E+00  0.000000E+00  0.000000E+00  0.000000E+00  0.000000E+00  1.310706E-01 -8.479292E-06  2.140909E-10  1.310706E-01                                                                                                                                                                                                                                                                                                                                                                                                                                                                                              
  1.250000E+02  1.250000E+02 -4.725000E+03  1.596651E-09 -1.363220E-12  4.834806E-16 -1.596650E-09  8.842586E-12 -7.554858E-15  2.679030E-18 -8.842583E-12  0.000000E+00  0.000000E+00  0.000000E+00  0.000000E+00  0.000000E+00  0.000000E+00  0.000000E+00  0.000000E+00  1.378621E-01  1.313823E-05 -7.344707E-10  1.378621E-01                                                                                                                                                                                                                                                                                                                                                                                                                                                                                              
  3.750000E+02  1.250000E+02 -4.725000E+03  1.602468E-09 -3.694281E-12  7.585106E-16 -1.602464E-09  8.876172E-12 -2.047734E-14  4.203602E-18 -8.876148E-12  0.000000E+00  0.000000E+00  0.000000E+00  0.000000E+00  0.000000E+00  0.000000E+00  0.000000E+00  0.000000E+00  1.378670E-01  3.523934E-05  2.554888E-10  1.378670E-01                                                                                                                                                                                                                                                                                                                                                                                                                                                                                              
  6.250000E+02  1.250000E+02 -4.725000E+03  1.613064E-09 -3.728180E-12  2.078723E-15 -1.613060E-09  8.937504E-12 -2.067002E-14  1.152361E-17 -8.937481E-12  0.000000E+00  0.000000E+00  0.000000E+00  0.000000E+00  0.000000E+00  0.000000E+00  0.000000E+00  0.000000E+00  1.378837E-01  3.259501E-05  1.157479E-09  1.378837E-01                                                                                                                                                                                                                                                                                                                                                                                                                                                                                              
  7.600000E+02  1.250000E+02 -4.725000E+03  1.625679E-09 -1.868349E-12  2.017742E-15 -1.625678E-09  9.013142E-12 -1.036106E-14  1.118910E-17 -9.013136E-12  0.000000E+00  0.000000E+00  0.000000E+00  0.000000E+00  0.000000E+00  0.000000E+00  0.000000E+00  0.000000E+00  1.379679E-01  1.409968E-05  9.251655E-10  1.379679E-01                                                                                                                                                                                                                                                                                                                                                                                                                                                                                              
  7.800000E+02  1.250000E+02 -4.725000E+03  1.625746E-09  8.871446E-15  1.917650E-15 -1.625746E-09  9.015206E-12  4.920281E-17  1.063567E-17 -9.015206E-12  0.000000E+00  0.000000E+00  0.000000E+00  0.000000E+00  0.000000E+00  0.000000E+00  0.000000E+00  0.000000E+00  1.379726E-01  8.162055E-09  8.341820E-10  1.379726E-01                                                                                                                                                                                                                                                                                                                                                                                                                                                                                              
  8.000000E+02  1.250000E+02 -4.725000E+03  1.625680E-09  1.883102E-12  1.788509E-15 -1.625679E-09  9.013150E-12  1.044288E-14  9.917923E-18 -9.013144E-12  0.000000E+00  0.000000E+00  0.000000E+00  0.000000E+00  0.000000E+00  0.000000E+00  0.000000E+00  0.000000E+00  1.379679E-01 -1.408593E-05  7.387064E-10  1.379679E-01                                                                                                                                                                                                                                                                                                                                                                                                                                                                                              
  9.350000E+02  1.250000E+02 -4.725000E+03  1.613073E-09  3.731238E-12  9.785013E-16 -1.613069E-09  8.937556E-12  2.068698E-14  5.424420E-18 -8.937532E-12  0.000000E+00  0.000000E+00  0.000000E+00  0.000000E+00  0.000000E+00  0.000000E+00  0.000000E+00  0.000000E+00  1.378837E-01 -3.259240E-05 -2.087875E-10  1.378837E-01                                                                                                                                                                                                                                                                                                                                                                                                                                                                                              
  1.185000E+03  1.250000E+02 -4.725000E+03  1.602474E-09  3.690751E-12  1.136230E-15 -1.602470E-09  8.876206E-12  2.045778E-14  6.296894E-18 -8.876183E-12  0.000000E+00  0.000000E+00  0.000000E+00  0.000000E+00  0.000000E+00  0.000000E+00  0.000000E+00  0.000000E+00  1.378670E-01 -3.524357E-05  3.414843E-10  1.378670E-01                                                                                                                                                                                                                                                                                                                                                                                                                                                                                              