Title="TOUGHREACT V3.30-OMP flowvector.tec: Liq & Gas Fluxes (kg/s/m^2), Pore Velocities (m/s), & Heat Fluxes (J/s/m2)"                                                                                                                                                                                                                                                                                                                                                                                                                                                                                                                                                                                                                                                                                                         
Variables= "X(m)"     "Y(m)"      "Z(m)"     "FluxLiq"   "FluxLiq_X"   "FluxLiq_Y"   "FluxLiq_Z"   "PorVelLiq"  "PorVelLiqX"  "PorVelLiqY"  "PorVelLiqZ"     "FluxGas"   "FluxGas_X"   "FluxGas_Y"   "FluxGas_Z"   "PorVelGas"  "PorVelGasX"  "PorVelGasY"  "PorVelGasZ"    "HeatFlux"  "HeatFlux_X"  "HeatFlux_Y"  "HeatFlux_Z"                                                                                                                                                                                                                                                                                                                                                                                                                                                                                                
Zone T= "1.00000000E+11 sec" I=     9 J=    10 K=    23 F=Point
  1.250000E+02  1.250000E+02 -5.425000E+03  1.686968E-10 -1.219431E-12  2.128416E-15 -1.686924E-10  9.485337E-13 -6.878633E-15  1.200457E-17 -9.485088E-13  0.000000E+00  0.000000E+00  0.000000E+00  0.000000E+00  0.000000E+00  0.000000E+00  0.000000E+00  0.000000E+00  6.178793E-02  1.119386E-06  1.338803E-09  6.178793E-02                                                                                                                                                                                                                                                                                                                                                                                                                                                                                              
  3.750000E+02  1.250000E+02 -5.425000E+03  1.693155E-10 -2.597772E-12  1.220405E-15 -1.692956E-10  9.521466E-13 -1.465528E-14  6.884126E-18 -9.520338E-13  0.000000E+00  0.000000E+00  0.000000E+00  0.000000E+00  0.000000E+00  0.000000E+00  0.000000E+00  0.000000E+00  6.178833E-02  2.422412E-06  3.222192E-10  6.178833E-02                                                                                                                                                                                                                                                                                                                                                                                                                                                                                              
  6.250000E+02  1.250000E+02 -5.425000E+03  1.700805E-10 -1.523711E-12  1.282041E-15 -1.700736E-10  9.566782E-13 -8.597002E-15  7.233326E-18 -9.566396E-13  0.000000E+00  0.000000E+00  0.000000E+00  0.000000E+00  0.000000E+00  0.000000E+00  0.000000E+00  0.000000E+00  6.178896E-02  1.474310E-06  5.247321E-10  6.178896E-02                                                                                                                                                                                                                                                                                                                                                                                                                                                                                              
  7.600000E+02  1.250000E+02 -5.425000E+03  1.700337E-10 -1.928031E-13  9.482082E-16 -1.700335E-10  9.566433E-13 -1.088049E-15  5.350924E-18 -9.566426E-13  0.000000E+00  0.000000E+00  0.000000E+00  0.000000E+00  0.000000E+00  0.000000E+00  0.000000E+00  0.000000E+00  6.178910E-02  2.310697E-07  4.070130E-11  6.178910E-02                                                                                                                                                                                                                                                                                                                                                                                                                                                                                              
  7.800000E+02  1.250000E+02 -5.425000E+03  1.699928E-10  4.586811E-16  9.208878E-16 -1.699928E-10  9.565116E-13  2.588652E-18  5.197202E-18 -9.565116E-13  0.000000E+00  0.000000E+00  0.000000E+00  0.000000E+00  0.000000E+00  0.000000E+00  0.000000E+00  0.000000E+00  6.178914E-02  4.448722E-10 -8.828055E-11  6.178914E-02                                                                                                                                                                                                                                                                                                                                                                                                                                                                                              
  8.000000E+02  1.250000E+02 -5.425000E+03  1.700337E-10  1.937414E-13  9.014544E-16 -1.700336E-10  9.566434E-13  1.093344E-15  5.087083E-18 -9.566428E-13  0.000000E+00  0.000000E+00  0.000000E+00  0.000000E+00  0.000000E+00  0.000000E+00  0.000000E+00  0.000000E+00  6.178910E-02 -2.299577E-07 -4.193928E-11  6.178910E-02                                                                                                                                                                                                                                                                                                                                                                                                                                                                                              
  9.350000E+02  1.250000E+02 -5.425000E+03  1.700801E-10  1.523167E-12  9.988062E-16 -1.700733E-10  9.566761E-13  8.593934E-15  5.635302E-18 -9.566375E-13  0.000000E+00  0.000000E+00  0.000000E+00  0.000000E+00  0.000000E+00  0.000000E+00  0.000000E+00  0.000000E+00  6.178896E-02 -1.474412E-06 -2.042915E-10  6.178896E-02                                                                                                                                                                                                                                                                                                                                                                                                                                                                                              
  1.185000E+03  1.250000E+02 -5.425000E+03  1.693150E-10  2.599250E-12  1.814553E-15 -1.692950E-10  9.521435E-13  1.466362E-14  1.023563E-17 -9.520306E-13  0.000000E+00  0.000000E+00  0.000000E+00  0.000000E+00  0.000000E+00  0.000000E+00  0.000000E+00  0.000000E+00  6.178833E-02 -2.420787E-06  7.973028E-10  6.178833E-02                                                                                                                                                                                                                                                                                                                                                                                                                                                                                              
  1.435000E+03  1.250000E+02 -5.425000E+03  1.686974E-10  1.221933E-12  2.344666E-15 -1.686930E-10  9.485373E-13  6.892746E-15  1.322425E-17 -9.485122E-13  0.000000E+00  0.000000E+00  0.000000E+00  0.000000E+00  0.000000E+00  0.000000E+00  0.000000E+00  0.000000E+00  6.178793E-02 -1.116992E-06  1.246471E-09  6.178793E-02                                                                                                                                                                                                                                                                                                                                                                                                                                                                                              
  1.250000E+02  1.250000E+02 -5.225000E+03  6.196959E-10 -1.117798E-12  6.569083E-16 -6.196949E-10  3.468968E-12 -6.272426E-15  3.685667E-18 -3.468962E-12  0.000000E+00  0.000000E+00  0.000000E+00  0.000000E+00  0.000000E+00  0.000000E+00  0.000000E+00  0.000000E+00  1.266231E-01  1.981647E-06  5.238943E-11  1.266231E-01                                                                                                                                                                                                                                                                                                                                                                                                                                                                                              
  3.750000E+02  1.250000E+02 -5.225000E+03  6.217459E-10 -2.453834E-12  5.719481E-17 -6.217411E-10  3.480957E-12 -1.377128E-14  3.209436E-19 -3.480930E-12  0.000000E+00  0.000000E+00  0.000000E+00  0.000000E+00  0.000000E+00  0.000000E+00  0.000000E+00  0.000000E+00  1.266253E-01  4.398947E-06 -1.146035E-09  1.266253E-01                                                                                                                                                                                                                                                                                                                                                                                                                                                                                              
  6.250000E+02  1.250000E+02 -5.225000E+03  6.246126E-10 -1.482620E-12  1.662895E-16 -6.246108E-10  3.497921E-12 -8.321795E-15  9.333438E-19 -3.497911E-12  0.000000E+00  0.000000E+00  0.000000E+00  0.000000E+00  0.000000E+00  0.000000E+00  0.000000E+00  0.000000E+00  1.266288E-01  2.737032E-06 -8.391462E-10  1.266288E-01                                                                                                                                                                                                                                                                                                                                                                                                                                                                                              
  7.600000E+02  1.250000E+02 -5.225000E+03  6.245086E-10 -1.941598E-13  8.355713E-18 -6.245085E-10  3.498295E-12 -1.090061E-15  4.690985E-20 -3.498294E-12  0.000000E+00  0.000000E+00  0.000000E+00  0.000000E+00  0.000000E+00  0.000000E+00  0.000000E+00  0.000000E+00  1.266296E-01  4.285077E-07 -1.191992E-09  1.266296E-01                                                                                                                                                                                                                                                                                                                                                                                                                                                                                              
  7.800000E+02  1.250000E+02 -5.225000E+03  6.243444E-10  2.166162E-18  2.309047E-17 -6.243444E-10  3.497785E-12  1.216232E-20  1.296457E-19 -3.497785E-12  0.000000E+00  0.000000E+00  0.000000E+00  0.000000E+00  0.000000E+00  0.000000E+00  0.000000E+00  0.000000E+00  1.266298E-01 -1.020443E-09 -1.149643E-09  1.266298E-01                                                                                                                                                                                                                                                                                                                                                                                                                                                                                              
  8.000000E+02  1.250000E+02 -5.225000E+03  6.245085E-10  1.953426E-13  5.491418E-17 -6.245085E-10  3.498294E-12  1.096701E-15  3.082940E-19 -3.498294E-12  0.000000E+00  0.000000E+00  0.000000E+00  0.000000E+00  0.000000E+00  0.000000E+00  0.000000E+00  0.000000E+00  1.266296E-01 -4.278745E-07 -1.080463E-09  1.266296E-01                                                                                                                                                                                                                                                                                                                                                                                                                                                                                              
  9.350000E+02  1.250000E+02 -5.225000E+03  6.246122E-10  1.482936E-12  1.721678E-16 -6.246104E-10  3.497919E-12  8.323571E-15  9.663372E-19 -3.497909E-12  0.000000E+00  0.000000E+00  0.000000E+00  0.000000E+00  0.000000E+00  0.000000E+00  0.000000E+00  0.000000E+00  1.266288E-01 -2.736411E-06 -1.315717E-09  1.266288E-01                                                                                                                                                                                                                                                                                                                                                                                                                                                                                              
  1.185000E+03  1.250000E+02 -5.225000E+03  6.217442E-10  2.454582E-12  1.968563E-15 -6.217393E-10  3.480947E-12  1.377548E-14  1.104642E-17 -3.480920E-12  0.000000E+00  0.000000E+00  0.000000E+00  0.000000E+00  0.000000E+00  0.000000E+00  0.000000E+00  0.000000E+00  1.266253E-01 -4.397854E-06  6.512621E-10  1.266253E-01                                                                                                                                                                                                                                                                                                                                                                                                                                                                                              
  1.435000E+03  1.250000E+02 -5.225000E+03  6.196959E-10  1.119411E-12  2.262955E-15 -6.196949E-10  3.468968E-12  6.281475E-15  1.269660E-17 -3.468962E-12  0.000000E+00  0.000000E+00  0.000000E+00  0.000000E+00  0.000000E+00  0.000000E+00  0.000000E+00  0.000000E+00  1.266231E-01 -1.979522E-06  9.048309E-10  1.266231E-01                                                                                                                                                                                                                                                                                                                                                                                                                                                                                              
  1.250000E+02  1.250000E+02 -4.975000E+03  1.192254E-09 -1.444310E-12 -9.416799E-16 -1.192253E-09  6.634839E-12 -8.050142E-15 -5.247850E-18 -6.634834E-12  0.000000E+00  0.000000E+00  0.000000E+00  0.000000E+00  0.000000E+00  0.000000E+00  0.000000E+00  0.000000E+00  1.328965E-01  4.720419E-06 -2.446010E-09  1.328965E-01                                                                                                                                                                                                                                                                                                                                                                                                                                                                                              
  3.750000E+02  1.250000E+02 -4.975000E+03  1.195977E-09 -3.460130E-12 -5.781905E-16 -1.195972E-09  6.656525E-12 -1.928873E-14 -3.222656E-18 -6.656497E-12  0.000000E+00  0.000000E+00  0.000000E+00  0.000000E+00  0.000000E+00  0.000000E+00  0.000000E+00  0.000000E+00  1.329029E-01  1.133287E-05 -2.454317E-09  1.329029E-01                                                                                                                                                                                                                                                                                                                                                                                                                                                                                              
  6.250000E+02  1.250000E+02 -4.975000E+03  1.202305E-09 -2.358352E-12  8.039107E-16 -1.202303E-09  6.693682E-12 -1.314882E-14  4.481957E-18 -6.693669E-12  0.000000E+00  0.000000E+00  0.000000E+00  0.000000E+00  0.000000E+00  0.000000E+00  0.000000E+00  0.000000E+00  1.329162E-01  7.811074E-06 -1.388042E-09  1.329162E-01                                                                                                                                                                                                                                                                                                                                                                                                                                                                                              
  7.600000E+02  1.250000E+02 -4.975000E+03  1.203299E-09 -4.567563E-13  5.039890E-16 -1.203299E-09  6.701251E-12 -2.547312E-15  2.810641E-18 -6.701251E-12  0.000000E+00  0.000000E+00  0.000000E+00  0.000000E+00  0.000000E+00  0.000000E+00  0.000000E+00  0.000000E+00  1.329219E-01  1.606254E-06 -1.726754E-09  1.329219E-01                                                                                                                                                                                                                                                                                                                                                                                                                                                                                              
  7.800000E+02  1.250000E+02 -4.975000E+03  1.202988E-09  9.019363E-16  5.027192E-16 -1.202988E-09  6.700456E-12  5.030525E-18  2.803903E-18 -6.700456E-12  0.000000E+00  0.000000E+00  0.000000E+00  0.000000E+00  0.000000E+00  0.000000E+00  0.000000E+00  0.000000E+00  1.329225E-01  9.670357E-10 -1.658158E-09  1.329225E-01                                                                                                                                                                                                                                                                                                                                                                                                                                                                                              
  8.000000E+02  1.250000E+02 -4.975000E+03  1.203299E-09  4.588712E-13  5.218211E-16 -1.203299E-09  6.701251E-12  2.559107E-15  2.910086E-18 -6.701251E-12  0.000000E+00  0.000000E+00  0.000000E+00  0.000000E+00  0.000000E+00  0.000000E+00  0.000000E+00  0.000000E+00  1.329219E-01 -1.603254E-06 -1.668089E-09  1.329219E-01                                                                                                                                                                                                                                                                                                                                                                                                                                                                                              
  9.350000E+02  1.250000E+02 -4.975000E+03  1.202305E-09  2.359811E-12  1.062597E-15 -1.202303E-09  6.693683E-12  1.315696E-14  5.924180E-18 -6.693670E-12  0.000000E+00  0.000000E+00  0.000000E+00  0.000000E+00  0.000000E+00  0.000000E+00  0.000000E+00  0.000000E+00  1.329162E-01 -7.809402E-06 -1.418105E-09  1.329162E-01                                                                                                                                                                                                                                                                                                                                                                                                                                                                                              
  1.185000E+03  1.250000E+02 -4.975000E+03  1.195975E-09  3.461619E-12  1.705421E-15 -1.195970E-09  6.656513E-12  1.929703E-14  9.505492E-18 -6.656485E-12  0.000000E+00  0.000000E+00  0.000000E+00  0.000000E+00  0.000000E+00  0.000000E+00  0.000000E+00  0.000000E+00  1.329029E-01 -1.133138E-05 -5.062535E-10  1.329029E-01                                                                                                                                                                                                                                                                                                                                                                                                                                                                                              
  1.435000E+03  1.250000E+02 -4.975000E+03  1.192252E-09  1.445552E-12  1.770893E-15 -1.192252E-09  6.634830E-12  8.057066E-15  9.868936E-18 -6.634825E-12  0.000000E+00  0.000000E+00  0.000000E+00  0.000000E+00  0.000000E+00  0.000000E+00  0.000000E+00  0.000000E+00  1.328965E-01 -4.718565E-06 -4.231490E-10  1.328965E-01                                                                                                                                                                                                                                                                                                                                                                                                                                                                                              
  1.250000E+02  1.250000E+02 -4.725000E+03  1.782000E-09 -1.470652E-12  3.862439E-16 -1.781999E-09  9.857905E-12 -8.140291E-15  2.137616E-18 -9.857901E-12  0.000000E+00  0.000000E+00  0.000000E+00  0.000000E+00  0.000000E+00  0.000000E+00  0.000000E+00  0.000000E+00  1.395501E-01  1.124922E-05 -5.177393E-09  1.395501E-01                                                                                                                                                                                                                                                                                                                                                                                                                                                                                              
  3.750000E+02  1.250000E+02 -4.725000E+03  1.786845E-09 -4.108258E-12  3.451865E-16 -1.786841E-09  9.886221E-12 -2.274430E-14  1.910660E-18 -9.886195E-12  0.000000E+00  0.000000E+00  0.000000E+00  0.000000E+00  0.000000E+00  0.000000E+00  0.000000E+00  0.000000E+00  1.395624E-01  3.124414E-05 -5.916300E-09  1.395624E-01                                                                                                                                                                                                                                                                                                                                                                                                                                                                                              
  6.250000E+02  1.250000E+02 -4.725000E+03  1.797564E-09 -4.175097E-12  3.911821E-16 -1.797559E-09  9.948440E-12 -2.311956E-14  2.165911E-18 -9.948413E-12  0.000000E+00  0.000000E+00  0.000000E+00  0.000000E+00  0.000000E+00  0.000000E+00  0.000000E+00  0.000000E+00  1.396015E-01  3.111892E-05 -5.467037E-09  1.396015E-01                                                                                                                                                                                                                                                                                                                                                                                                                                                                                              
  7.600000E+02  1.250000E+02 -4.725000E+03  1.811008E-09 -2.060106E-12  5.783780E-16 -1.811007E-09  1.002912E-11 -1.141053E-14  3.203402E-18 -1.002911E-11  0.000000E+00  0.000000E+00  0.000000E+00  0.000000E+00  0.000000E+00  0.000000E+00  0.000000E+00  0.000000E+00  1.396941E-01  1.494808E-05 -5.786901E-09  1.396940E-01                                                                                                                                                                                                                                                                                                                                                                                                                                                                                              
  7.800000E+02  1.250000E+02 -4.725000E+03  1.811058E-09  7.473360E-16  6.200730E-16 -1.811058E-09  1.003127E-11  4.139818E-18  3.434853E-18 -1.003127E-11  0.000000E+00  0.000000E+00  0.000000E+00  0.000000E+00  0.000000E+00  0.000000E+00  0.000000E+00  0.000000E+00  1.396992E-01  1.815206E-09 -5.766613E-09  1.396992E-01                                                                                                                                                                                                                                                                                                                                                                                                                                                                                              
  8.000000E+02  1.250000E+02 -4.725000E+03  1.811008E-09  2.061939E-12  6.356984E-16 -1.811007E-09  1.002912E-11  1.142069E-14  3.520877E-18 -1.002911E-11  0.000000E+00  0.000000E+00  0.000000E+00  0.000000E+00  0.000000E+00  0.000000E+00  0.000000E+00  0.000000E+00  1.396941E-01 -1.494505E-05 -5.710809E-09  1.396940E-01                                                                                                                                                                                                                                                                                                                                                                                                                                                                                              
  9.350000E+02  1.250000E+02 -4.725000E+03  1.797565E-09  4.177444E-12  7.549635E-16 -1.797561E-09  9.948448E-12  2.313255E-14  4.180110E-18 -9.948421E-12  0.000000E+00  0.000000E+00  0.000000E+00  0.000000E+00  0.000000E+00  0.000000E+00  0.000000E+00  0.000000E+00  1.396015E-01 -3.111723E-05 -5.468605E-09  1.396015E-01                                                                                                                                                                                                                                                                                                                                                                                                                                                                                              
  1.185000E+03  1.250000E+02 -4.725000E+03  1.786848E-09  4.110812E-12  1.614758E-15 -1.786843E-09  9.886236E-12  2.275844E-14  8.937935E-18 -9.886210E-12  0.000000E+00  0.000000E+00  0.000000E+00  0.000000E+00  0.000000E+00  0.000000E+00  0.000000E+00  0.000000E+00  1.395624E-01 -3.124205E-05 -4.335142E-09  1.395624E-01                                                                                                                                                                                                                                                                                                                                                                                                                                                                                              