Title="TOUGHREACT V3.30-OMP flowvector.tec: Liq & Gas Fluxes (kg/s/m^2), Pore Velocities (m/s), & Heat Fluxes (J/s/m2)"                                                                                                                                                                                                                                                                                                                                                                                                                                                                                                                                                                                                                                                                                                         
Variables= "X(m)"     "Y(m)"      "Z(m)"     "FluxLiq"   "FluxLiq_X"   "FluxLiq_Y"   "FluxLiq_Z"   "PorVelLiq"  "PorVelLiqX"  "PorVelLiqY"  "PorVelLiqZ"     "FluxGas"   "FluxGas_X"   "FluxGas_Y"   "FluxGas_Z"   "PorVelGas"  "PorVelGasX"  "PorVelGasY"  "PorVelGasZ"    "HeatFlux"  "HeatFlux_X"  "HeatFlux_Y"  "HeatFlux_Z"                                                                                                                                                                                                                                                                                                                                                                                                                                                                                                
Zone T= "1.00000000E+07 sec" I=     9 J=    10 K=    23 F=Point
  1.250000E+02  1.250000E+02 -5.425000E+03  1.192971E-07 -1.188761E-07 -3.180978E-14  1.001384E-08  6.735317E-10 -6.711650E-10 -1.795847E-16  5.641293E-11  0.000000E+00  0.000000E+00  0.000000E+00  0.000000E+00  0.000000E+00  0.000000E+00  0.000000E+00  0.000000E+00  1.283213E-01 -1.072129E-01 -2.887472E-08  7.051059E-02                                                                                                                                                                                                                                                                                                                                                                                                                                                                                              
  3.750000E+02  1.250000E+02 -5.425000E+03  2.662363E-07 -2.661017E-07 -1.362719E-14  8.466155E-09  1.503215E-09 -1.502459E-09 -7.693574E-17  4.769551E-11  0.000000E+00  0.000000E+00  0.000000E+00  0.000000E+00  0.000000E+00  0.000000E+00  0.000000E+00  0.000000E+00  2.497581E-01 -2.400038E-01 -1.231551E-08  6.911795E-02                                                                                                                                                                                                                                                                                                                                                                                                                                                                                              
  6.250000E+02  1.250000E+02 -5.425000E+03  1.668113E-07 -1.667359E-07  3.227291E-15  5.014703E-09  9.418940E-10 -9.414702E-10  1.822189E-17  2.825334E-11  0.000000E+00  0.000000E+00  0.000000E+00  0.000000E+00  0.000000E+00  0.000000E+00  0.000000E+00  0.000000E+00  1.642256E-01 -1.503757E-01  2.714938E-09  6.600924E-02                                                                                                                                                                                                                                                                                                                                                                                                                                                                                              
  7.600000E+02  1.250000E+02 -5.425000E+03  2.657381E-08 -2.619443E-08 -2.308836E-15  4.474263E-09  1.500583E-10 -1.479251E-10 -1.303817E-17  2.521241E-11  0.000000E+00  0.000000E+00  0.000000E+00  0.000000E+00  0.000000E+00  0.000000E+00  0.000000E+00  0.000000E+00  6.963597E-02 -2.357726E-02  8.371493E-10  6.552313E-02                                                                                                                                                                                                                                                                                                                                                                                                                                                                                              
  7.800000E+02  1.250000E+02 -5.425000E+03  4.441917E-09  4.512130E-14 -3.295121E-15  4.441917E-09  2.503202E-11  2.548154E-16 -1.860919E-17  2.503202E-11  0.000000E+00  0.000000E+00  0.000000E+00  0.000000E+00  0.000000E+00  0.000000E+00  0.000000E+00  0.000000E+00  6.549448E-02  8.347368E-08 -2.838899E-09  6.549448E-02                                                                                                                                                                                                                                                                                                                                                                                                                                                                                              
  8.000000E+02  1.250000E+02 -5.425000E+03  2.657392E-08  2.619455E-08 -3.752065E-15  4.474260E-09  1.500590E-10  1.479258E-10 -2.118819E-17  2.521239E-11  0.000000E+00  0.000000E+00  0.000000E+00  0.000000E+00  0.000000E+00  0.000000E+00  0.000000E+00  0.000000E+00  6.963601E-02  2.357740E-02 -3.714422E-09  6.552312E-02                                                                                                                                                                                                                                                                                                                                                                                                                                                                                              
  9.350000E+02  1.250000E+02 -5.425000E+03  1.668114E-07  1.667360E-07 -1.184237E-14  5.014672E-09  9.418945E-10  9.414707E-10 -6.686421E-17  2.825317E-11  0.000000E+00  0.000000E+00  0.000000E+00  0.000000E+00  0.000000E+00  0.000000E+00  0.000000E+00  0.000000E+00  1.642257E-01  1.503758E-01 -9.101368E-09  6.600921E-02                                                                                                                                                                                                                                                                                                                                                                                                                                                                                              
  1.185000E+03  1.250000E+02 -5.425000E+03  2.662364E-07  2.661018E-07 -3.759812E-15  8.466152E-09  1.503216E-09  1.502459E-09 -2.122697E-17  4.769550E-11  0.000000E+00  0.000000E+00  0.000000E+00  0.000000E+00  0.000000E+00  0.000000E+00  0.000000E+00  0.000000E+00  2.497581E-01  2.400038E-01 -2.436016E-09  6.911795E-02                                                                                                                                                                                                                                                                                                                                                                                                                                                                                              
  1.435000E+03  1.250000E+02 -5.425000E+03  1.192972E-07  1.188762E-07 -1.682501E-14  1.001384E-08  6.735318E-10  6.711652E-10 -9.498698E-17  5.641292E-11  0.000000E+00  0.000000E+00  0.000000E+00  0.000000E+00  0.000000E+00  0.000000E+00  0.000000E+00  0.000000E+00  1.283213E-01  1.072130E-01 -1.432244E-08  7.051059E-02                                                                                                                                                                                                                                                                                                                                                                                                                                                                                              
  1.250000E+02  1.250000E+02 -5.225000E+03  1.190845E-07 -1.181545E-07 -1.712103E-14  1.485318E-08  6.688657E-10 -6.636311E-10 -9.615589E-17  8.351657E-11  0.000000E+00  0.000000E+00  0.000000E+00  0.000000E+00  0.000000E+00  0.000000E+00  0.000000E+00  0.000000E+00  1.735082E-01 -1.039678E-01 -1.594104E-08  1.389093E-01                                                                                                                                                                                                                                                                                                                                                                                                                                                                                              
  3.750000E+02  1.250000E+02 -5.225000E+03  2.666598E-07 -2.656833E-07 -8.710924E-15  2.279983E-08  1.497813E-09 -1.492335E-09 -4.892467E-17  1.279775E-10  0.000000E+00  0.000000E+00  0.000000E+00  0.000000E+00  0.000000E+00  0.000000E+00  0.000000E+00  0.000000E+00  2.755697E-01 -2.337926E-01 -8.820111E-09  1.458755E-01                                                                                                                                                                                                                                                                                                                                                                                                                                                                                              
  6.250000E+02  1.250000E+02 -5.225000E+03  1.698993E-07 -1.674986E-07 -1.334861E-14  2.846001E-08  9.543337E-10 -9.408965E-10 -7.497955E-17  1.595824E-10  0.000000E+00  0.000000E+00  0.000000E+00  0.000000E+00  0.000000E+00  0.000000E+00  0.000000E+00  0.000000E+00  2.108568E-01 -1.473841E-01 -1.244541E-08  1.507930E-01                                                                                                                                                                                                                                                                                                                                                                                                                                                                                              
  7.600000E+02  1.250000E+02 -5.225000E+03  3.882767E-08 -2.684079E-08 -4.954284E-15  2.805637E-08  2.179292E-10 -1.507971E-10 -2.783349E-17  1.573321E-10  0.000000E+00  0.000000E+00  0.000000E+00  0.000000E+00  0.000000E+00  0.000000E+00  0.000000E+00  0.000000E+00  1.522636E-01 -2.356415E-02 -2.043397E-09  1.504291E-01                                                                                                                                                                                                                                                                                                                                                                                                                                                                                              
  7.800000E+02  1.250000E+02 -5.225000E+03  2.802034E-08  1.558663E-14 -4.645185E-15  2.802034E-08  1.571427E-10  8.757553E-17 -2.609927E-17  1.571427E-10  0.000000E+00  0.000000E+00  0.000000E+00  0.000000E+00  0.000000E+00  0.000000E+00  0.000000E+00  0.000000E+00  1.503978E-01  7.699200E-09 -5.356318E-09  1.503978E-01                                                                                                                                                                                                                                                                                                                                                                                                                                                                                              
  8.000000E+02  1.250000E+02 -5.225000E+03  3.882770E-08  2.684084E-08 -5.655272E-15  2.805637E-08  2.179294E-10  1.507973E-10 -3.177169E-17  1.573321E-10  0.000000E+00  0.000000E+00  0.000000E+00  0.000000E+00  0.000000E+00  0.000000E+00  0.000000E+00  0.000000E+00  1.522636E-01  2.356418E-02 -4.067026E-09  1.504291E-01                                                                                                                                                                                                                                                                                                                                                                                                                                                                                              
  9.350000E+02  1.250000E+02 -5.225000E+03  1.698993E-07  1.674987E-07 -1.219892E-14  2.845998E-08  9.543341E-10  9.408969E-10 -6.852174E-17  1.595822E-10  0.000000E+00  0.000000E+00  0.000000E+00  0.000000E+00  0.000000E+00  0.000000E+00  0.000000E+00  0.000000E+00  2.108569E-01  1.473841E-01 -1.090450E-08  1.507930E-01                                                                                                                                                                                                                                                                                                                                                                                                                                                                                              
  1.185000E+03  1.250000E+02 -5.225000E+03  2.666599E-07  2.656834E-07 -1.151385E-14  2.279981E-08  1.497813E-09  1.492336E-09 -6.466722E-17  1.279774E-10  0.000000E+00  0.000000E+00  0.000000E+00  0.000000E+00  0.000000E+00  0.000000E+00  0.000000E+00  0.000000E+00  2.755697E-01  2.337927E-01 -1.022163E-08  1.458755E-01                                                                                                                                                                                                                                                                                                                                                                                                                                                                                              
  1.435000E+03  1.250000E+02 -5.225000E+03  1.190845E-07  1.181546E-07  8.520609E-15  1.485313E-08  6.688658E-10  6.636313E-10  4.785382E-17  8.351632E-11  0.000000E+00  0.000000E+00  0.000000E+00  0.000000E+00  0.000000E+00  0.000000E+00  0.000000E+00  0.000000E+00  1.735082E-01  1.039678E-01  6.875228E-09  1.389093E-01                                                                                                                                                                                                                                                                                                                                                                                                                                                                                              
  1.250000E+02  1.250000E+02 -4.975000E+03  1.093101E-07 -1.062275E-07 -6.996752E-15 -2.577630E-08  6.097063E-10 -5.926930E-10 -3.903503E-17 -1.430271E-10  0.000000E+00  0.000000E+00  0.000000E+00  0.000000E+00  0.000000E+00  0.000000E+00  0.000000E+00  0.000000E+00  1.429076E-01 -9.043550E-02 -7.258746E-09  1.106526E-01                                                                                                                                                                                                                                                                                                                                                                                                                                                                                              
  3.750000E+02  1.250000E+02 -4.975000E+03  2.439041E-07 -2.415240E-07 -3.057563E-16  3.399045E-08  1.360953E-09 -1.347676E-09 -1.705913E-18  1.896382E-10  0.000000E+00  0.000000E+00  0.000000E+00  0.000000E+00  0.000000E+00  0.000000E+00  0.000000E+00  0.000000E+00  2.610963E-01 -2.056250E-01 -2.543608E-09  1.609025E-01                                                                                                                                                                                                                                                                                                                                                                                                                                                                                              
  6.250000E+02  1.250000E+02 -4.975000E+03  1.867214E-07 -1.545327E-07  3.107606E-14  1.048071E-07  1.041505E-09 -8.623457E-10  1.734051E-16  5.840316E-10  0.000000E+00  0.000000E+00  0.000000E+00  0.000000E+00  0.000000E+00  0.000000E+00  0.000000E+00  0.000000E+00  2.576062E-01 -1.315504E-01  2.733021E-08  2.214846E-01                                                                                                                                                                                                                                                                                                                                                                                                                                                                                              
  7.600000E+02  1.250000E+02 -4.975000E+03  1.117817E-07 -2.589623E-08  2.721253E-14  1.087407E-07  6.230494E-10 -1.445376E-10  1.518800E-16  6.060523E-10  0.000000E+00  0.000000E+00  0.000000E+00  0.000000E+00  0.000000E+00  0.000000E+00  0.000000E+00  0.000000E+00  2.259183E-01 -2.198352E-02  2.181804E-08  2.248462E-01                                                                                                                                                                                                                                                                                                                                                                                                                                                                                              
  7.800000E+02  1.250000E+02 -4.975000E+03  1.088906E-07  4.494842E-14  2.769565E-14  1.088906E-07  6.069488E-10  2.508966E-16  1.545928E-16  6.069488E-10  0.000000E+00  0.000000E+00  0.000000E+00  0.000000E+00  0.000000E+00  0.000000E+00  0.000000E+00  0.000000E+00  2.249751E-01  2.875759E-08  2.288771E-08  2.249751E-01                                                                                                                                                                                                                                                                                                                                                                                                                                                                                              
  8.000000E+02  1.250000E+02 -4.975000E+03  1.117817E-07  2.589631E-08  2.691892E-14  1.087407E-07  6.230495E-10  1.445381E-10  1.502413E-16  6.060523E-10  0.000000E+00  0.000000E+00  0.000000E+00  0.000000E+00  0.000000E+00  0.000000E+00  0.000000E+00  0.000000E+00  2.259183E-01  2.198359E-02  2.268283E-08  2.248462E-01                                                                                                                                                                                                                                                                                                                                                                                                                                                                                              
  9.350000E+02  1.250000E+02 -4.975000E+03  1.867215E-07  1.545328E-07  1.342524E-14  1.048071E-07  1.041505E-09  8.623460E-10  7.491315E-17  5.840315E-10  0.000000E+00  0.000000E+00  0.000000E+00  0.000000E+00  0.000000E+00  0.000000E+00  0.000000E+00  0.000000E+00  2.576062E-01  1.315505E-01  1.094145E-08  2.214846E-01                                                                                                                                                                                                                                                                                                                                                                                                                                                                                              
  1.185000E+03  1.250000E+02 -4.975000E+03  2.439041E-07  2.415241E-07 -9.556731E-15  3.399040E-08  1.360953E-09  1.347676E-09 -5.332007E-17  1.896379E-10  0.000000E+00  0.000000E+00  0.000000E+00  0.000000E+00  0.000000E+00  0.000000E+00  0.000000E+00  0.000000E+00  2.610963E-01  2.056250E-01 -9.712873E-09  1.609025E-01                                                                                                                                                                                                                                                                                                                                                                                                                                                                                              
  1.435000E+03  1.250000E+02 -4.975000E+03  1.093101E-07  1.062275E-07  4.474609E-15 -2.577639E-08  6.097064E-10  5.926930E-10  2.496394E-17 -1.430276E-10  0.000000E+00  0.000000E+00  0.000000E+00  0.000000E+00  0.000000E+00  0.000000E+00  0.000000E+00  0.000000E+00  1.429075E-01  9.043550E-02  3.266345E-09  1.106525E-01                                                                                                                                                                                                                                                                                                                                                                                                                                                                                              
  1.250000E+02  1.250000E+02 -4.725000E+03  8.434413E-08 -5.373512E-08  7.139873E-15 -6.501130E-08  4.673216E-10 -2.977732E-10  3.956199E-17 -3.601675E-10  0.000000E+00  0.000000E+00  0.000000E+00  0.000000E+00  0.000000E+00  0.000000E+00  0.000000E+00  0.000000E+00  9.677249E-02 -4.412863E-02  5.260108E-09  8.612537E-02                                                                                                                                                                                                                                                                                                                                                                                                                                                                                              
  3.750000E+02  1.250000E+02 -4.725000E+03  1.556965E-07 -1.255538E-07 -2.175769E-15  9.207402E-08  8.626042E-10 -6.958338E-10 -1.205686E-17  5.098052E-10  0.000000E+00  0.000000E+00  0.000000E+00  0.000000E+00  0.000000E+00  0.000000E+00  0.000000E+00  0.000000E+00  2.384447E-01 -1.031016E-01 -2.236420E-09  2.150022E-01                                                                                                                                                                                                                                                                                                                                                                                                                                                                                              
  6.250000E+02  1.250000E+02 -4.725000E+03  3.090476E-07 -8.359759E-08  7.088324E-15  2.975263E-07  1.712174E-09 -4.633615E-10  3.928683E-17  1.648283E-09  0.000000E+00  0.000000E+00  0.000000E+00  0.000000E+00  0.000000E+00  0.000000E+00  0.000000E+00  0.000000E+00  3.917218E-01 -6.861935E-02  4.585730E-09  3.856648E-01                                                                                                                                                                                                                                                                                                                                                                                                                                                                                              
  7.600000E+02  1.250000E+02 -4.725000E+03  3.142394E-07 -1.600769E-08  1.064827E-14  3.138314E-07  1.741269E-09 -8.874783E-11  5.903268E-17  1.739006E-09  0.000000E+00  0.000000E+00  0.000000E+00  0.000000E+00  0.000000E+00  0.000000E+00  0.000000E+00  0.000000E+00  3.996530E-01 -1.306025E-02  6.465972E-09  3.994395E-01                                                                                                                                                                                                                                                                                                                                                                                                                                                                                              
  7.800000E+02  1.250000E+02 -4.725000E+03  3.145688E-07 -3.575371E-14  1.196300E-14  3.145688E-07  1.743306E-09 -1.982396E-16  6.633004E-17  1.743306E-09  0.000000E+00  0.000000E+00  0.000000E+00  0.000000E+00  0.000000E+00  0.000000E+00  0.000000E+00  0.000000E+00  4.000484E-01 -3.279020E-08  9.643725E-09  4.000484E-01                                                                                                                                                                                                                                                                                                                                                                                                                                                                                              
  8.000000E+02  1.250000E+02 -4.725000E+03  3.142394E-07  1.600763E-08  1.400366E-14  3.138314E-07  1.741269E-09  8.874754E-11  7.763451E-17  1.739006E-09  0.000000E+00  0.000000E+00  0.000000E+00  0.000000E+00  0.000000E+00  0.000000E+00  0.000000E+00  0.000000E+00  3.996530E-01  1.306020E-02  1.041845E-08  3.994395E-01                                                                                                                                                                                                                                                                                                                                                                                                                                                                                              
  9.350000E+02  1.250000E+02 -4.725000E+03  3.090476E-07  8.359759E-08  1.381295E-14  2.975263E-07  1.712174E-09  4.633615E-10  7.655786E-17  1.648283E-09  0.000000E+00  0.000000E+00  0.000000E+00  0.000000E+00  0.000000E+00  0.000000E+00  0.000000E+00  0.000000E+00  3.917218E-01  6.861935E-02  1.044606E-08  3.856648E-01                                                                                                                                                                                                                                                                                                                                                                                                                                                                                              
  1.185000E+03  1.250000E+02 -4.725000E+03  1.556964E-07  1.255538E-07  2.291669E-15  9.207397E-08  8.626041E-10  6.958339E-10  1.269911E-17  5.098049E-10  0.000000E+00  0.000000E+00  0.000000E+00  0.000000E+00  0.000000E+00  0.000000E+00  0.000000E+00  0.000000E+00  2.384447E-01  1.031016E-01  2.219565E-09  2.150022E-01                                                                                                                                                                                                                                                                                                                                                                                                                                                                                              