Title="TREACTMECH V1.0-OMP-MPI stress-strain.tec: Total Stresses (Pa), Strains"                                                                                                                                                                                                                                                                                                                                                                                                                                                                                                                                                                                                                                                                                                                                                 
Variables= "X(m)"     "Y(m)"      "Z(m)"    "Sigma_xx"    "Sigma_yy"    "Sigma_zz"    "Sigma_yz"    "Sigma_xz"    "Sigma_xy"   "Strain_xx"   "Strain_yy"   "Strain_zz"   "Strain_yz"   "Strain_xz"   "Strain_xy"  "Vol_Strain"   "E_fail_xx"   "E_fail_yy"   "E_fail_zz"  "E_fail_yz2"  "E_fail_xz2"  "E_fail_xy2"  "E_fail_vol"                                                                                                                                                                                                                                                                                                                                                                                                                                                                                                
Zone T= "5.18400000E+05 sec" I=     9 J=    10 K=    23 F=Point
  1.250000E+02  1.250000E+02 -5.425000E+03 -9.290135E+07 -1.143869E+08 -1.268090E+08 -3.784270E-03  3.855621E+03  3.602962E-03  3.044971E-05 -4.062335E-12 -1.068946E-04 -8.807181E-13  8.973238E-07  6.245134E-13 -7.644491E-05  0.000000E+00  0.000000E+00  0.000000E+00  0.000000E+00  0.000000E+00  0.000000E+00  0.000000E+00                                                                                                                                                                                                                                                                                                                                                                                                                                                                                              
  3.750000E+02  1.250000E+02 -5.425000E+03 -9.292685E+07 -1.140252E+08 -1.263268E+08 -1.727310E-03  1.180280E+04  8.531571E-04  7.546859E-06 -3.684002E-12 -1.020967E-04 -4.019992E-13  2.746882E-06  1.478806E-13 -9.454982E-05  0.000000E+00  0.000000E+00  0.000000E+00  0.000000E+00  0.000000E+00  0.000000E+00  0.000000E+00                                                                                                                                                                                                                                                                                                                                                                                                                                                                                              
  6.250000E+02  1.250000E+02 -5.425000E+03 -9.296887E+07 -1.134404E+08 -1.255548E+08  1.938612E-03  1.212802E+04 -1.337013E-03 -2.929957E-05 -3.714044E-12 -9.512301E-05  4.511757E-13  2.822571E-06 -2.317489E-13 -1.244226E-04  0.000000E+00  0.000000E+00  0.000000E+00  0.000000E+00  0.000000E+00  0.000000E+00  0.000000E+00                                                                                                                                                                                                                                                                                                                                                                                                                                                                                              
  7.600000E+02  1.250000E+02 -5.425000E+03 -9.299979E+07 -1.128482E+08 -1.248199E+08  3.024340E-03  9.651090E+03  1.795410E-02 -6.677243E-05 -3.621747E-12 -9.150174E-05  7.038587E-13  2.246111E-06  3.112044E-12 -1.582742E-04  0.000000E+00  0.000000E+00  0.000000E+00  0.000000E+00  0.000000E+00  0.000000E+00  0.000000E+00                                                                                                                                                                                                                                                                                                                                                                                                                                                                                              
  7.800000E+02  1.250000E+02 -5.425000E+03 -9.300776E+07 -1.125800E+08 -1.245073E+08  1.328461E-03 -3.766040E-02  1.533735E-02 -8.387981E-05 -3.197556E-12 -9.127181E-05  3.091746E-13 -8.764754E-12  2.658475E-12 -1.751516E-04  0.000000E+00  0.000000E+00  0.000000E+00  0.000000E+00  0.000000E+00  0.000000E+00  0.000000E+00                                                                                                                                                                                                                                                                                                                                                                                                                                                                                              
  8.000000E+02  1.250000E+02 -5.425000E+03 -9.299979E+07 -1.128482E+08 -1.248199E+08 -2.776018E-03 -9.651150E+03  1.844725E-02 -6.677243E-05 -2.758179E-12 -9.150174E-05 -6.460664E-13 -2.246125E-06  3.197524E-12 -1.582742E-04  0.000000E+00  0.000000E+00  0.000000E+00  0.000000E+00  0.000000E+00  0.000000E+00  0.000000E+00                                                                                                                                                                                                                                                                                                                                                                                                                                                                                              
  9.350000E+02  1.250000E+02 -5.425000E+03 -9.296887E+07 -1.134404E+08 -1.255548E+08 -7.527199E-03 -1.212802E+04  4.440902E-04 -2.929959E-05 -2.522249E-12 -9.512301E-05 -1.751815E-12 -2.822571E-06  7.697563E-14 -1.244226E-04  0.000000E+00  0.000000E+00  0.000000E+00  0.000000E+00  0.000000E+00  0.000000E+00  0.000000E+00                                                                                                                                                                                                                                                                                                                                                                                                                                                                                              
  1.185000E+03  1.250000E+02 -5.425000E+03 -9.292685E+07 -1.140252E+08 -1.263268E+08 -8.718613E-03 -1.180279E+04 -3.948745E-03  7.546859E-06 -2.848216E-12 -1.020967E-04 -2.029094E-12 -2.746878E-06 -6.844491E-13 -9.454982E-05  0.000000E+00  0.000000E+00  0.000000E+00  0.000000E+00  0.000000E+00  0.000000E+00  0.000000E+00                                                                                                                                                                                                                                                                                                                                                                                                                                                                                              
  1.435000E+03  1.250000E+02 -5.425000E+03 -9.290135E+07 -1.143869E+08 -1.268090E+08 -9.170375E-03 -3.855619E+03 -2.855184E-03  3.044970E-05 -3.349047E-12 -1.068946E-04 -2.134234E-12 -8.973234E-07 -4.948986E-13 -7.644492E-05  0.000000E+00  0.000000E+00  0.000000E+00  0.000000E+00  0.000000E+00  0.000000E+00  0.000000E+00                                                                                                                                                                                                                                                                                                                                                                                                                                                                                              
  1.250000E+02  1.250000E+02 -5.225000E+03 -9.000322E+07 -1.108551E+08 -1.228618E+08 -4.685096E-03  1.129365E+04 -2.957330E-04  3.106217E-05 -4.613962E-12 -1.002913E-04 -1.090369E-12  2.628387E-06 -5.126039E-14 -6.922911E-05  0.000000E+00  0.000000E+00  0.000000E+00  0.000000E+00  0.000000E+00  0.000000E+00  0.000000E+00                                                                                                                                                                                                                                                                                                                                                                                                                                                                                              
  3.750000E+02  1.250000E+02 -5.225000E+03 -9.001746E+07 -1.104737E+08 -1.223790E+08 -2.393005E-03  3.405564E+04  8.661248E-03  8.278447E-06 -3.779817E-12 -9.760429E-05 -5.569273E-13  7.925814E-06  1.501283E-12 -8.932585E-05  0.000000E+00  0.000000E+00  0.000000E+00  0.000000E+00  0.000000E+00  0.000000E+00  0.000000E+00                                                                                                                                                                                                                                                                                                                                                                                                                                                                                              
  6.250000E+02  1.250000E+02 -5.225000E+03 -9.004318E+07 -1.098315E+08 -1.215722E+08  4.573685E-03  3.200065E+04  3.629876E-03 -3.000410E-05 -2.555009E-12 -9.370824E-05  1.064440E-12  7.447555E-06  6.291785E-13 -1.237123E-04  0.000000E+00  0.000000E+00  0.000000E+00  0.000000E+00  0.000000E+00  0.000000E+00  0.000000E+00                                                                                                                                                                                                                                                                                                                                                                                                                                                                                              
  7.600000E+02  1.250000E+02 -5.225000E+03 -9.005366E+07 -1.091450E+08 -1.207479E+08  5.029900E-03  1.254660E+04 -8.607204E-03 -7.119854E-05 -2.209452E-12 -9.193247E-05  1.170615E-12  2.919986E-06 -1.491915E-12 -1.631310E-04  0.000000E+00  0.000000E+00  0.000000E+00  0.000000E+00  0.000000E+00  0.000000E+00  0.000000E+00                                                                                                                                                                                                                                                                                                                                                                                                                                                                                              
  7.800000E+02  1.250000E+02 -5.225000E+03 -9.005670E+07 -1.088260E+08 -1.203805E+08  1.461604E-03 -2.409527E-02 -1.571333E-02 -9.101547E-05 -2.368117E-12 -9.202374E-05  3.401610E-13 -5.607725E-12 -2.723644E-12 -1.830392E-04  0.000000E+00  0.000000E+00  0.000000E+00  0.000000E+00  0.000000E+00  0.000000E+00  0.000000E+00                                                                                                                                                                                                                                                                                                                                                                                                                                                                                              
  8.000000E+02  1.250000E+02 -5.225000E+03 -9.005366E+07 -1.091450E+08 -1.207479E+08 -1.747521E-03 -1.254660E+04 -2.122327E-02 -7.119854E-05 -2.670458E-12 -9.193246E-05 -4.067029E-13 -2.919987E-06 -3.678700E-12 -1.631310E-04  0.000000E+00  0.000000E+00  0.000000E+00  0.000000E+00  0.000000E+00  0.000000E+00  0.000000E+00                                                                                                                                                                                                                                                                                                                                                                                                                                                                                              
  9.350000E+02  1.250000E+02 -5.225000E+03 -9.004318E+07 -1.098315E+08 -1.215722E+08 -8.131013E-03 -3.200064E+04 -1.004377E-02 -3.000411E-05 -3.647849E-12 -9.370824E-05 -1.892342E-12 -7.447552E-06 -1.740920E-12 -1.237124E-04  0.000000E+00  0.000000E+00  0.000000E+00  0.000000E+00  0.000000E+00  0.000000E+00  0.000000E+00                                                                                                                                                                                                                                                                                                                                                                                                                                                                                              
  1.185000E+03  1.250000E+02 -5.225000E+03 -9.001746E+07 -1.104737E+08 -1.223790E+08 -1.323478E-02 -3.405563E+04 -3.511769E-03  8.278444E-06 -4.705051E-12 -9.760430E-05 -3.080149E-12 -7.925813E-06 -6.087066E-13 -8.932586E-05  0.000000E+00  0.000000E+00  0.000000E+00  0.000000E+00  0.000000E+00  0.000000E+00  0.000000E+00                                                                                                                                                                                                                                                                                                                                                                                                                                                                                              
  1.435000E+03  1.250000E+02 -5.225000E+03 -9.000322E+07 -1.108551E+08 -1.228618E+08 -1.111357E-02 -1.129366E+04 -1.688025E-03  3.106216E-05 -5.102577E-12 -1.002913E-04 -2.586475E-12 -2.628388E-06 -2.925910E-13 -6.922912E-05  0.000000E+00  0.000000E+00  0.000000E+00  0.000000E+00  0.000000E+00  0.000000E+00  0.000000E+00                                                                                                                                                                                                                                                                                                                                                                                                                                                                                              
  1.250000E+02  1.250000E+02 -4.975000E+03 -8.636137E+07 -1.064238E+08 -1.179367E+08  4.718595E-03  1.841142E+04 -5.683687E-03  3.264916E-05 -4.118480E-12 -9.455938E-05  1.098165E-12  4.284915E-06 -9.851724E-13 -6.191022E-05  0.000000E+00  0.000000E+00  0.000000E+00  0.000000E+00  0.000000E+00  0.000000E+00  0.000000E+00                                                                                                                                                                                                                                                                                                                                                                                                                                                                                              
  3.750000E+02  1.250000E+02 -4.975000E+03 -8.637742E+07 -1.060331E+08 -1.174532E+08 -1.691266E-03  5.307284E+04  9.031467E-03  9.482329E-06 -3.652269E-12 -9.290942E-05 -3.936106E-13  1.235171E-05  1.565454E-12 -8.342709E-05  0.000000E+00  0.000000E+00  0.000000E+00  0.000000E+00  0.000000E+00  0.000000E+00  0.000000E+00                                                                                                                                                                                                                                                                                                                                                                                                                                                                                              
  6.250000E+02  1.250000E+02 -4.975000E+03 -8.639178E+07 -1.053223E+08 -1.165770E+08 -1.029363E-02  5.121753E+04  5.257703E-03 -3.149950E-05 -2.175274E-12 -9.015361E-05 -2.395651E-12  1.191992E-05  9.113353E-13 -1.216531E-04  0.000000E+00  0.000000E+00  0.000000E+00  0.000000E+00  0.000000E+00  0.000000E+00  0.000000E+00                                                                                                                                                                                                                                                                                                                                                                                                                                                                                              
  7.600000E+02  1.250000E+02 -4.975000E+03 -8.642341E+07 -1.045275E+08 -1.156223E+08 -1.257726E-02  2.946708E+04 -2.307909E-02 -8.053226E-05 -1.754116E-12 -8.825617E-05 -2.927122E-12  6.857914E-06 -4.000376E-12 -1.687884E-04  0.000000E+00  0.000000E+00  0.000000E+00  0.000000E+00  0.000000E+00  0.000000E+00  0.000000E+00                                                                                                                                                                                                                                                                                                                                                                                                                                                                                              
  7.800000E+02  1.250000E+02 -4.975000E+03 -8.642809E+07 -1.041401E+08 -1.151710E+08 -9.942984E-03 -1.407412E-02 -2.523924E-02 -1.047350E-04 -2.139272E-12 -8.789949E-05 -2.314044E-12 -3.275489E-12 -4.374802E-12 -1.926344E-04  0.000000E+00  0.000000E+00  0.000000E+00  0.000000E+00  0.000000E+00  0.000000E+00  0.000000E+00                                                                                                                                                                                                                                                                                                                                                                                                                                                                                              
  8.000000E+02  1.250000E+02 -4.975000E+03 -8.642341E+07 -1.045275E+08 -1.156223E+08 -6.974508E-03 -2.946705E+04 -2.693330E-02 -8.053227E-05 -2.588129E-12 -8.825617E-05 -1.623187E-12 -6.857907E-06 -4.668438E-12 -1.687884E-04  0.000000E+00  0.000000E+00  0.000000E+00  0.000000E+00  0.000000E+00  0.000000E+00  0.000000E+00                                                                                                                                                                                                                                                                                                                                                                                                                                                                                              
  9.350000E+02  1.250000E+02 -4.975000E+03 -8.639178E+07 -1.053223E+08 -1.165770E+08 -2.237087E-03 -5.121752E+04 -1.428218E-02 -3.149951E-05 -3.987241E-12 -9.015361E-05 -5.206402E-13 -1.191992E-05 -2.475578E-12 -1.216531E-04  0.000000E+00  0.000000E+00  0.000000E+00  0.000000E+00  0.000000E+00  0.000000E+00  0.000000E+00                                                                                                                                                                                                                                                                                                                                                                                                                                                                                              
  1.185000E+03  1.250000E+02 -4.975000E+03 -8.637742E+07 -1.060331E+08 -1.174532E+08  1.449086E-03 -5.307285E+04 -3.163057E-03  9.482322E-06 -5.410520E-12 -9.290942E-05  3.372477E-13 -1.235172E-05 -5.482632E-13 -8.342710E-05  0.000000E+00  0.000000E+00  0.000000E+00  0.000000E+00  0.000000E+00  0.000000E+00  0.000000E+00                                                                                                                                                                                                                                                                                                                                                                                                                                                                                              
  1.435000E+03  1.250000E+02 -4.975000E+03 -8.636137E+07 -1.064238E+08 -1.179367E+08  2.322731E-03 -1.841143E+04  1.945799E-03  3.264916E-05 -5.528697E-12 -9.455938E-05  5.405722E-13 -4.284918E-06  3.372717E-13 -6.191023E-05  0.000000E+00  0.000000E+00  0.000000E+00  0.000000E+00  0.000000E+00  0.000000E+00  0.000000E+00                                                                                                                                                                                                                                                                                                                                                                                                                                                                                              
  1.250000E+02  1.250000E+02 -4.725000E+03 -8.273753E+07 -1.020131E+08 -1.130213E+08  7.362612E-03  1.659595E+04 -5.038350E-03  3.448131E-05 -2.239031E-12 -8.789605E-05  1.713511E-12  3.862397E-06 -8.733141E-13 -5.341475E-05  0.000000E+00  0.000000E+00  0.000000E+00  0.000000E+00  0.000000E+00  0.000000E+00  0.000000E+00                                                                                                                                                                                                                                                                                                                                                                                                                                                                                              
  3.750000E+02  1.250000E+02 -4.725000E+03 -8.271399E+07 -1.016037E+08 -1.125344E+08  3.022126E-03  6.956138E+04 -2.803579E-03  1.313701E-05 -2.892139E-12 -8.757191E-05  7.033435E-13  1.618911E-05 -4.859537E-13 -7.443489E-05  0.000000E+00  0.000000E+00  0.000000E+00  0.000000E+00  0.000000E+00  0.000000E+00  0.000000E+00                                                                                                                                                                                                                                                                                                                                                                                                                                                                                              
  6.250000E+02  1.250000E+02 -4.725000E+03 -8.278077E+07 -1.008298E+08 -1.115725E+08 -8.947367E-03  7.676113E+04  3.398211E-04 -3.556113E-05 -3.024323E-12 -8.406590E-05 -2.082333E-12  1.786472E-05  5.890233E-14 -1.196270E-04  0.000000E+00  0.000000E+00  0.000000E+00  0.000000E+00  0.000000E+00  0.000000E+00  0.000000E+00                                                                                                                                                                                                                                                                                                                                                                                                                                                                                              
  7.600000E+02  1.250000E+02 -4.725000E+03 -8.273764E+07 -9.983428E+07 -1.103914E+08 -1.304176E-02 -1.533561E+03  1.230703E-03 -9.104367E-05 -2.866238E-12 -8.232044E-05 -3.035227E-12 -3.569076E-07  2.133219E-13 -1.733641E-04  0.000000E+00  0.000000E+00  0.000000E+00  0.000000E+00  0.000000E+00  0.000000E+00  0.000000E+00                                                                                                                                                                                                                                                                                                                                                                                                                                                                                              
  7.800000E+02  1.250000E+02 -4.725000E+03 -8.272216E+07 -9.935303E+07 -1.098468E+08 -9.777385E-03 -3.875932E-02 -3.303230E-03 -1.193423E-04 -2.795455E-12 -8.321790E-05 -2.275504E-12 -9.020508E-12 -5.725598E-13 -2.025602E-04  0.000000E+00  0.000000E+00  0.000000E+00  0.000000E+00  0.000000E+00  0.000000E+00  0.000000E+00                                                                                                                                                                                                                                                                                                                                                                                                                                                                                              
  8.000000E+02  1.250000E+02 -4.725000E+03 -8.273764E+07 -9.983428E+07 -1.103914E+08 -6.894279E-03  1.533580E+03 -4.630144E-03 -9.104367E-05 -2.788084E-12 -8.232044E-05 -1.604515E-12  3.569121E-07 -8.025582E-13 -1.733641E-04  0.000000E+00  0.000000E+00  0.000000E+00  0.000000E+00  0.000000E+00  0.000000E+00  0.000000E+00                                                                                                                                                                                                                                                                                                                                                                                                                                                                                              
  9.350000E+02  1.250000E+02 -4.725000E+03 -8.278077E+07 -1.008298E+08 -1.115725E+08  1.241124E-03 -7.676113E+04 -4.804403E-03 -3.556114E-05 -3.102849E-12 -8.406589E-05  2.888485E-13 -1.786472E-05 -8.327632E-13 -1.196270E-04  0.000000E+00  0.000000E+00  0.000000E+00  0.000000E+00  0.000000E+00  0.000000E+00  0.000000E+00                                                                                                                                                                                                                                                                                                                                                                                                                                                                                              
  1.185000E+03  1.250000E+02 -4.725000E+03 -8.271399E+07 -1.016037E+08 -1.125344E+08  9.410454E-03 -6.956140E+04 -1.214262E-03  1.313700E-05 -3.519722E-12 -8.757190E-05  2.190107E-12 -1.618912E-05 -2.104722E-13 -7.443490E-05  0.000000E+00  0.000000E+00  0.000000E+00  0.000000E+00  0.000000E+00  0.000000E+00  0.000000E+00                                                                                                                                                                                                                                                                                                                                                                                                                                                                                              