Title="TREACTMECH V1.0-OMP-MPI stress-strain.tec: Total Stresses (Pa), Strains"                                                                                                                                                                                                                                                                                                                                                                                                                                                                                                                                                                                                                                                                                                                                                 
Variables= "X(m)"     "Y(m)"      "Z(m)"    "Sigma_xx"    "Sigma_yy"    "Sigma_zz"    "Sigma_yz"    "Sigma_xz"    "Sigma_xy"   "Strain_xx"   "Strain_yy"   "Strain_zz"   "Strain_yz"   "Strain_xz"   "Strain_xy"  "Vol_Strain"   "E_fail_xx"   "E_fail_yy"   "E_fail_zz"  "E_fail_yz2"  "E_fail_xz2"  "E_fail_xy2"  "E_fail_vol"                                                                                                                                                                                                                                                                                                                                                                                                                                                                                                
Zone T= "3.15569000E+08 sec" I=     9 J=    10 K=    23 F=Point
  1.250000E+02  1.250000E+02 -5.425000E+03 -9.274979E+07 -1.143510E+08 -1.269254E+08  4.565062E-02  5.088955E+03 -4.170508E-02  4.047482E-05  1.771443E-11 -1.200954E-04  1.062433E-11  1.184359E-06 -7.228880E-12 -7.962053E-05  0.000000E+00  0.000000E+00  0.000000E+00  0.000000E+00  0.000000E+00  0.000000E+00  0.000000E+00                                                                                                                                                                                                                                                                                                                                                                                                                                                                                              
  3.750000E+02  1.250000E+02 -5.425000E+03 -9.278336E+07 -1.139095E+08 -1.263541E+08  2.210464E-01  1.531681E+04 -1.331169E-02  9.959088E-06  1.025658E-11 -1.144820E-04  5.144443E-11  3.564701E-06 -2.307359E-12 -1.045229E-04  0.000000E+00  0.000000E+00  0.000000E+00  0.000000E+00  0.000000E+00  0.000000E+00  0.000000E+00                                                                                                                                                                                                                                                                                                                                                                                                                                                                                              
  6.250000E+02  1.250000E+02 -5.425000E+03 -9.283821E+07 -1.131906E+08 -1.254355E+08  1.129510E+00  1.492767E+04  4.349765E-01 -3.961810E-05 -5.872475E-12 -1.064282E-04  2.628724E-10  3.474136E-06  7.539592E-11 -1.460463E-04  0.000000E+00  0.000000E+00  0.000000E+00  0.000000E+00  0.000000E+00  0.000000E+00  0.000000E+00                                                                                                                                                                                                                                                                                                                                                                                                                                                                                              
  7.600000E+02  1.250000E+02 -5.425000E+03 -9.287496E+07 -1.125211E+08 -1.246174E+08  2.209387E+00  1.081625E+04  3.280189E-01 -8.430662E-05 -3.310540E-11 -1.023077E-04  5.141935E-10  2.517281E-06  5.685661E-11 -1.866143E-04  0.000000E+00  0.000000E+00  0.000000E+00  0.000000E+00  0.000000E+00  0.000000E+00  0.000000E+00                                                                                                                                                                                                                                                                                                                                                                                                                                                                                              
  7.800000E+02  1.250000E+02 -5.425000E+03 -9.288294E+07 -1.122486E+08 -1.243003E+08  2.728453E+00  2.045109E+00  4.352137E-01 -1.017859E-04 -5.769619E-11 -1.020542E-04  6.349965E-10  4.759609E-10  7.543705E-11 -2.038402E-04  0.000000E+00  0.000000E+00  0.000000E+00  0.000000E+00  0.000000E+00  0.000000E+00  0.000000E+00                                                                                                                                                                                                                                                                                                                                                                                                                                                                                              
  8.000000E+02  1.250000E+02 -5.425000E+03 -9.287496E+07 -1.125211E+08 -1.246174E+08  2.424200E+00 -1.081094E+04  2.118912E+00 -8.430628E-05 -5.914516E-11 -1.023077E-04  5.641873E-10 -2.516046E-06  3.672780E-10 -1.866140E-04  0.000000E+00  0.000000E+00  0.000000E+00  0.000000E+00  0.000000E+00  0.000000E+00  0.000000E+00                                                                                                                                                                                                                                                                                                                                                                                                                                                                                              
  9.350000E+02  1.250000E+02 -5.425000E+03 -9.283821E+07 -1.131906E+08 -1.254355E+08  7.944633E-01 -1.492515E+04  7.758170E-01 -3.961794E-05 -1.272761E-11 -1.064282E-04  1.848965E-10 -3.473551E-06  1.344749E-10 -1.460461E-04  0.000000E+00  0.000000E+00  0.000000E+00  0.000000E+00  0.000000E+00  0.000000E+00  0.000000E+00                                                                                                                                                                                                                                                                                                                                                                                                                                                                                              
  1.185000E+03  1.250000E+02 -5.425000E+03 -9.278336E+07 -1.139095E+08 -1.263541E+08 -1.058609E-01 -1.531658E+04  2.568758E-02  9.959129E-06  1.712329E-11 -1.144819E-04 -2.463715E-11 -3.564647E-06  4.452513E-12 -1.045228E-04  0.000000E+00  0.000000E+00  0.000000E+00  0.000000E+00  0.000000E+00  0.000000E+00  0.000000E+00                                                                                                                                                                                                                                                                                                                                                                                                                                                                                              
  1.435000E+03  1.250000E+02 -5.425000E+03 -9.274979E+07 -1.143510E+08 -1.269254E+08  2.653844E-02 -5.088827E+03  9.601994E-02  4.047491E-05  1.696260E-11 -1.200954E-04  6.176328E-12 -1.184330E-06  1.664346E-11 -7.962048E-05  0.000000E+00  0.000000E+00  0.000000E+00  0.000000E+00  0.000000E+00  0.000000E+00  0.000000E+00                                                                                                                                                                                                                                                                                                                                                                                                                                                                                              
  1.250000E+02  1.250000E+02 -5.225000E+03 -8.986770E+07 -1.108399E+08 -1.229828E+08  2.861439E-03  1.383963E+04  7.178812E-03  4.148865E-05  1.232037E-11 -1.120933E-04  6.659465E-13  3.220916E-06  1.244327E-12 -7.060467E-05  0.000000E+00  0.000000E+00  0.000000E+00  0.000000E+00  0.000000E+00  0.000000E+00  0.000000E+00                                                                                                                                                                                                                                                                                                                                                                                                                                                                                              
  3.750000E+02  1.250000E+02 -5.225000E+03 -8.988273E+07 -1.103699E+08 -1.224099E+08  8.558625E-02  4.105527E+04  1.859732E-01  1.096194E-05  8.695984E-12 -1.092694E-04  1.991860E-11  9.554847E-06  3.223535E-11 -9.830743E-05  0.000000E+00  0.000000E+00  0.000000E+00  0.000000E+00  0.000000E+00  0.000000E+00  0.000000E+00                                                                                                                                                                                                                                                                                                                                                                                                                                                                                              
  6.250000E+02  1.250000E+02 -5.225000E+03 -8.991023E+07 -1.095735E+08 -1.214465E+08 -1.210785E-01  3.746848E+04  4.663579E-01 -4.084097E-05 -1.321607E-12 -1.051760E-04 -2.817877E-11  8.720090E-06  8.083536E-11 -1.460169E-04  0.000000E+00  0.000000E+00  0.000000E+00  0.000000E+00  0.000000E+00  0.000000E+00  0.000000E+00                                                                                                                                                                                                                                                                                                                                                                                                                                                                                              
  7.600000E+02  1.250000E+02 -5.225000E+03 -8.992217E+07 -1.087967E+08 -1.205310E+08 -4.216003E-01  1.356148E+04  3.067613E-01 -8.999172E-05 -1.829545E-11 -1.033272E-04 -9.811960E-11  3.156181E-06  5.317197E-11 -1.933189E-04  0.000000E+00  0.000000E+00  0.000000E+00  0.000000E+00  0.000000E+00  0.000000E+00  0.000000E+00                                                                                                                                                                                                                                                                                                                                                                                                                                                                                              
  7.800000E+02  1.250000E+02 -5.225000E+03 -8.992596E+07 -1.084732E+08 -1.201594E+08 -4.679160E-01 -1.986776E+00  3.963652E-01 -1.102603E-04 -3.006280E-11 -1.034399E-04 -1.088987E-10 -4.623851E-10  6.870331E-11 -2.137002E-04  0.000000E+00  0.000000E+00  0.000000E+00  0.000000E+00  0.000000E+00  0.000000E+00  0.000000E+00                                                                                                                                                                                                                                                                                                                                                                                                                                                                                              
  8.000000E+02  1.250000E+02 -5.225000E+03 -8.992217E+07 -1.087967E+08 -1.205310E+08 -3.413312E-01 -1.356480E+04  9.669566E-01 -8.999167E-05 -3.255917E-11 -1.033272E-04 -7.943846E-11 -3.156954E-06  1.676058E-10 -1.933189E-04  0.000000E+00  0.000000E+00  0.000000E+00  0.000000E+00  0.000000E+00  0.000000E+00  0.000000E+00                                                                                                                                                                                                                                                                                                                                                                                                                                                                                              
  9.350000E+02  1.250000E+02 -5.225000E+03 -8.991022E+07 -1.095735E+08 -1.214465E+08 -5.943873E-02 -3.747011E+04  6.343303E-01 -4.084089E-05 -4.714767E-12 -1.051760E-04 -1.383325E-11 -8.720470E-06  1.099506E-10 -1.460169E-04  0.000000E+00  0.000000E+00  0.000000E+00  0.000000E+00  0.000000E+00  0.000000E+00  0.000000E+00                                                                                                                                                                                                                                                                                                                                                                                                                                                                                              
  1.185000E+03  1.250000E+02 -5.225000E+03 -8.988273E+07 -1.103699E+08 -1.224099E+08  5.006197E-02 -4.105588E+04  1.604560E-01  1.096203E-05  1.837538E-11 -1.092694E-04  1.165099E-11 -9.554990E-06  2.781237E-11 -9.830739E-05  0.000000E+00  0.000000E+00  0.000000E+00  0.000000E+00  0.000000E+00  0.000000E+00  0.000000E+00                                                                                                                                                                                                                                                                                                                                                                                                                                                                                              
  1.435000E+03  1.250000E+02 -5.225000E+03 -8.986770E+07 -1.108399E+08 -1.229828E+08  7.062984E-03 -1.383983E+04  6.122138E-02  4.148875E-05  1.750330E-11 -1.120934E-04  1.643778E-12 -3.220961E-06  1.061171E-11 -7.060462E-05  0.000000E+00  0.000000E+00  0.000000E+00  0.000000E+00  0.000000E+00  0.000000E+00  0.000000E+00                                                                                                                                                                                                                                                                                                                                                                                                                                                                                              
  1.250000E+02  1.250000E+02 -4.975000E+03 -8.624299E+07 -1.064289E+08 -1.180626E+08  8.368247E-02  1.881517E+04 -1.803222E-02  4.335229E-05  1.722568E-11 -1.050201E-04  1.947553E-11  4.378880E-06 -3.125585E-12 -6.166781E-05  0.000000E+00  0.000000E+00  0.000000E+00  0.000000E+00  0.000000E+00  0.000000E+00  0.000000E+00                                                                                                                                                                                                                                                                                                                                                                                                                                                                                              
  3.750000E+02  1.250000E+02 -4.975000E+03 -8.624891E+07 -1.059407E+08 -1.174886E+08  2.241582E-01  5.609049E+04  1.339580E-01  1.260800E-05  1.906930E-11 -1.039925E-04  5.216863E-11  1.305402E-05  2.321939E-11 -9.138450E-05  0.000000E+00  0.000000E+00  0.000000E+00  0.000000E+00  0.000000E+00  0.000000E+00  0.000000E+00                                                                                                                                                                                                                                                                                                                                                                                                                                                                                              
  6.250000E+02  1.250000E+02 -4.975000E+03 -8.625361E+07 -1.050535E+08 -1.164446E+08  5.905936E-01  5.463422E+04  4.716969E-01 -4.281794E-05  1.233273E-11 -1.019735E-04  1.374496E-10  1.271509E-05  8.176079E-11 -1.447914E-04  0.000000E+00  0.000000E+00  0.000000E+00  0.000000E+00  0.000000E+00  0.000000E+00  0.000000E+00                                                                                                                                                                                                                                                                                                                                                                                                                                                                                              
  7.600000E+02  1.250000E+02 -4.975000E+03 -8.628558E+07 -1.041501E+08 -1.153838E+08  8.696669E-01  3.431731E+04  1.813961E-01 -1.012965E-04 -1.056824E-11 -1.002978E-04  2.023987E-10  7.986714E-06  3.144199E-11 -2.015943E-04  0.000000E+00  0.000000E+00  0.000000E+00  0.000000E+00  0.000000E+00  0.000000E+00  0.000000E+00                                                                                                                                                                                                                                                                                                                                                                                                                                                                                              
  7.800000E+02  1.250000E+02 -4.975000E+03 -8.628858E+07 -1.037555E+08 -1.149243E+08  9.041252E-01  1.483736E+00  2.737672E-01 -1.259699E-04 -3.096667E-11 -9.984938E-05  2.104183E-10  3.453118E-10  4.745299E-11 -2.258193E-04  0.000000E+00  0.000000E+00  0.000000E+00  0.000000E+00  0.000000E+00  0.000000E+00  0.000000E+00                                                                                                                                                                                                                                                                                                                                                                                                                                                                                              
  8.000000E+02  1.250000E+02 -4.975000E+03 -8.628558E+07 -1.041501E+08 -1.153838E+08  8.152317E-01 -3.431563E+04  1.685113E+00 -1.012964E-04 -3.016609E-11 -1.002978E-04  1.897300E-10 -7.986322E-06  2.920863E-10 -2.015942E-04  0.000000E+00  0.000000E+00  0.000000E+00  0.000000E+00  0.000000E+00  0.000000E+00  0.000000E+00                                                                                                                                                                                                                                                                                                                                                                                                                                                                                              
  9.350000E+02  1.250000E+02 -4.975000E+03 -8.625361E+07 -1.050535E+08 -1.164446E+08  4.021297E-01 -5.463319E+04  5.672736E-01 -4.281783E-05  7.613258E-12 -1.019735E-04  9.358819E-11 -1.271485E-05  9.832742E-11 -1.447913E-04  0.000000E+00  0.000000E+00  0.000000E+00  0.000000E+00  0.000000E+00  0.000000E+00  0.000000E+00                                                                                                                                                                                                                                                                                                                                                                                                                                                                                              
  1.185000E+03  1.250000E+02 -4.975000E+03 -8.624891E+07 -1.059407E+08 -1.174886E+08  7.998925E-02 -5.609028E+04  9.625428E-03  1.260810E-05  2.642833E-11 -1.039926E-04  1.861601E-11 -1.305396E-05  1.668407E-12 -9.138443E-05  0.000000E+00  0.000000E+00  0.000000E+00  0.000000E+00  0.000000E+00  0.000000E+00  0.000000E+00                                                                                                                                                                                                                                                                                                                                                                                                                                                                                              
  1.435000E+03  1.250000E+02 -4.975000E+03 -8.624299E+07 -1.064289E+08 -1.180626E+08  6.632021E-02 -1.881517E+04  6.195591E-02  4.335241E-05  1.894571E-11 -1.050202E-04  1.543479E-11 -4.378880E-06  1.073902E-11 -6.166775E-05  0.000000E+00  0.000000E+00  0.000000E+00  0.000000E+00  0.000000E+00  0.000000E+00  0.000000E+00                                                                                                                                                                                                                                                                                                                                                                                                                                                                                              
  1.250000E+02  1.250000E+02 -4.725000E+03 -8.263371E+07 -1.020197E+08 -1.131414E+08  2.538851E-03  1.089649E+04 -5.362817E-02  4.405375E-05  2.304094E-11 -9.772961E-05  5.908701E-13  2.535955E-06 -9.295550E-12 -5.367583E-05  0.000000E+00  0.000000E+00  0.000000E+00  0.000000E+00  0.000000E+00  0.000000E+00  0.000000E+00                                                                                                                                                                                                                                                                                                                                                                                                                                                                                              
  3.750000E+02  1.250000E+02 -4.725000E+03 -8.259297E+07 -1.015190E+08 -1.125737E+08 -6.500924E-04  5.612207E+04 -1.999852E-01  1.627785E-05  3.113960E-11 -9.832446E-05 -1.512969E-13  1.306136E-05 -3.466410E-11 -8.204657E-05  0.000000E+00  0.000000E+00  0.000000E+00  0.000000E+00  0.000000E+00  0.000000E+00  0.000000E+00                                                                                                                                                                                                                                                                                                                                                                                                                                                                                              
  6.250000E+02  1.250000E+02 -4.725000E+03 -8.262533E+07 -1.005533E+08 -1.114421E+08  1.173378E-03  6.483505E+04 -4.128119E-01 -4.605881E-05  5.575850E-11 -9.673904E-05  2.730818E-13  1.508915E-05 -7.155406E-11 -1.427978E-04  0.000000E+00  0.000000E+00  0.000000E+00  0.000000E+00  0.000000E+00  0.000000E+00  0.000000E+00                                                                                                                                                                                                                                                                                                                                                                                                                                                                                              
  7.600000E+02  1.250000E+02 -4.725000E+03 -8.254230E+07 -9.942772E+07 -1.101487E+08  7.023929E-03 -1.495662E+04 -4.051201E-01 -1.093499E-04  7.640057E-11 -9.651689E-05  1.634688E-12 -3.480875E-06 -7.022081E-11 -2.058667E-04  0.000000E+00  0.000000E+00  0.000000E+00  0.000000E+00  0.000000E+00  0.000000E+00  0.000000E+00                                                                                                                                                                                                                                                                                                                                                                                                                                                                                              
  7.800000E+02  1.250000E+02 -4.725000E+03 -8.252818E+07 -9.894234E+07 -1.096043E+08  1.516085E-03 -1.209097E+00 -5.545540E-01 -1.381237E-04  8.111494E-11 -9.778841E-05  3.528404E-13 -2.813946E-10 -9.612269E-11 -2.359120E-04  0.000000E+00  0.000000E+00  0.000000E+00  0.000000E+00  0.000000E+00  0.000000E+00  0.000000E+00                                                                                                                                                                                                                                                                                                                                                                                                                                                                                              
  8.000000E+02  1.250000E+02 -4.725000E+03 -8.254230E+07 -9.942772E+07 -1.101487E+08 -4.487190E-04  1.495397E+04 -9.574274E-01 -1.093499E-04  7.725435E-11 -9.651695E-05 -1.044310E-13  3.480257E-06 -1.659541E-10 -2.058668E-04  0.000000E+00  0.000000E+00  0.000000E+00  0.000000E+00  0.000000E+00  0.000000E+00  0.000000E+00                                                                                                                                                                                                                                                                                                                                                                                                                                                                                              
  9.350000E+02  1.250000E+02 -4.725000E+03 -8.262533E+07 -1.005533E+08 -1.114421E+08  2.592840E-03 -6.483668E+04 -4.235737E-01 -4.605874E-05  5.015995E-11 -9.673914E-05  6.034351E-13 -1.508953E-05 -7.341944E-11 -1.427978E-04  0.000000E+00  0.000000E+00  0.000000E+00  0.000000E+00  0.000000E+00  0.000000E+00  0.000000E+00                                                                                                                                                                                                                                                                                                                                                                                                                                                                                              
  1.185000E+03  1.250000E+02 -4.725000E+03 -8.259296E+07 -1.015190E+08 -1.125737E+08  3.025288E-02 -5.612256E+04 -5.597449E-02  1.627797E-05  2.609588E-11 -9.832453E-05  7.040792E-12 -1.306148E-05 -9.702246E-12 -8.204654E-05  0.000000E+00  0.000000E+00  0.000000E+00  0.000000E+00  0.000000E+00  0.000000E+00  0.000000E+00                                                                                                                                                                                                                                                                                                                                                                                                                                                                                              