Title="TREACTMECH V1.0-OMP-MPI stress-strain.tec: Total Stresses (Pa), Strains"                                                                                                                                                                                                                                                                                                                                                                                                                                                                                                                                                                                                                                                                                                                                                 
Variables= "X(m)"     "Y(m)"      "Z(m)"    "Sigma_xx"    "Sigma_yy"    "Sigma_zz"    "Sigma_yz"    "Sigma_xz"    "Sigma_xy"   "Strain_xx"   "Strain_yy"   "Strain_zz"   "Strain_yz"   "Strain_xz"   "Strain_xy"  "Vol_Strain"   "E_fail_xx"   "E_fail_yy"   "E_fail_zz"  "E_fail_yz2"  "E_fail_xz2"  "E_fail_xy2"  "E_fail_vol"                                                                                                                                                                                                                                                                                                                                                                                                                                                                                                
Zone T= "1.00000000E+10 sec" I=     9 J=    10 K=    23 F=Point
  1.250000E+02  1.250000E+02 -5.425000E+03 -9.271391E+07 -1.143159E+08 -1.269262E+08 -5.485110E-03  5.086930E+03 -5.565239E-03  4.053921E-05  6.120800E-12 -1.232073E-04 -1.276557E-12  1.183888E-06 -9.646414E-13 -8.266812E-05  0.000000E+00  0.000000E+00  0.000000E+00  0.000000E+00  0.000000E+00  0.000000E+00  0.000000E+00                                                                                                                                                                                                                                                                                                                                                                                                                                                                                              
  3.750000E+02  1.250000E+02 -5.425000E+03 -9.274748E+07 -1.138737E+08 -1.263542E+08 -1.158290E-02  1.531466E+04 -1.084283E-02  9.966816E-06  5.563192E-12 -1.175947E-04 -2.695704E-12  3.564200E-06 -1.879423E-12 -1.076278E-04  0.000000E+00  0.000000E+00  0.000000E+00  0.000000E+00  0.000000E+00  0.000000E+00  0.000000E+00                                                                                                                                                                                                                                                                                                                                                                                                                                                                                              
  6.250000E+02  1.250000E+02 -5.425000E+03 -9.280232E+07 -1.131540E+08 -1.254348E+08 -1.913748E-02  1.492702E+04 -1.957539E-02 -3.968154E-05  5.435461E-12 -1.095409E-04 -4.453891E-12  3.473985E-06 -3.393068E-12 -1.492224E-04  0.000000E+00  0.000000E+00  0.000000E+00  0.000000E+00  0.000000E+00  0.000000E+00  0.000000E+00                                                                                                                                                                                                                                                                                                                                                                                                                                                                                              
  7.600000E+02  1.250000E+02 -5.425000E+03 -9.283907E+07 -1.124843E+08 -1.246166E+08 -1.520834E-02  1.081989E+04 -1.813981E-02 -8.437748E-05  5.378660E-12 -1.054198E-04 -3.539458E-12  2.518127E-06 -3.144233E-12 -1.897973E-04  0.000000E+00  0.000000E+00  0.000000E+00  0.000000E+00  0.000000E+00  0.000000E+00  0.000000E+00                                                                                                                                                                                                                                                                                                                                                                                                                                                                                              
  7.800000E+02  1.250000E+02 -5.425000E+03 -9.284704E+07 -1.122119E+08 -1.242995E+08 -6.397743E-03 -1.214266E-01 -2.414119E-02 -1.018571E-04  5.337154E-12 -1.051661E-04 -1.488955E-12 -2.825979E-11 -4.184472E-12 -2.070232E-04  0.000000E+00  0.000000E+00  0.000000E+00  0.000000E+00  0.000000E+00  0.000000E+00  0.000000E+00                                                                                                                                                                                                                                                                                                                                                                                                                                                                                              
  8.000000E+02  1.250000E+02 -5.425000E+03 -9.283907E+07 -1.124843E+08 -1.246166E+08 -2.132383E-03 -1.082000E+04 -2.945129E-02 -8.437750E-05  5.048498E-12 -1.054198E-04 -4.962724E-13 -2.518152E-06 -5.104890E-12 -1.897973E-04  0.000000E+00  0.000000E+00  0.000000E+00  0.000000E+00  0.000000E+00  0.000000E+00  0.000000E+00                                                                                                                                                                                                                                                                                                                                                                                                                                                                                              
  9.350000E+02  1.250000E+02 -5.425000E+03 -9.280232E+07 -1.131540E+08 -1.254348E+08 -1.715365E-03 -1.492706E+04 -1.128958E-02 -3.968155E-05  4.058748E-12 -1.095409E-04 -3.992193E-13 -3.473995E-06 -1.956860E-12 -1.492224E-04  0.000000E+00  0.000000E+00  0.000000E+00  0.000000E+00  0.000000E+00  0.000000E+00  0.000000E+00                                                                                                                                                                                                                                                                                                                                                                                                                                                                                              
  1.185000E+03  1.250000E+02 -5.425000E+03 -9.274748E+07 -1.138737E+08 -1.263542E+08  2.353190E-03 -1.531467E+04  1.494192E-03  9.966813E-06  3.492097E-12 -1.175947E-04  5.476609E-13 -3.564204E-06  2.589932E-13 -1.076279E-04  0.000000E+00  0.000000E+00  0.000000E+00  0.000000E+00  0.000000E+00  0.000000E+00  0.000000E+00                                                                                                                                                                                                                                                                                                                                                                                                                                                                                              
  1.435000E+03  1.250000E+02 -5.425000E+03 -9.271391E+07 -1.143159E+08 -1.269262E+08  3.555561E-03 -5.086934E+03  1.133638E-03  4.053921E-05  3.832338E-12 -1.232074E-04  8.274904E-13 -1.183889E-06  1.964972E-13 -8.266817E-05  0.000000E+00  0.000000E+00  0.000000E+00  0.000000E+00  0.000000E+00  0.000000E+00  0.000000E+00                                                                                                                                                                                                                                                                                                                                                                                                                                                                                              
  1.250000E+02  1.250000E+02 -5.225000E+03 -8.983340E+07 -1.108063E+08 -1.229835E+08 -4.120157E-03  1.382577E+04 -1.963289E-03  4.155134E-05  6.373772E-12 -1.150698E-04 -9.588897E-13  3.217691E-06 -3.403034E-13 -7.351842E-05  0.000000E+00  0.000000E+00  0.000000E+00  0.000000E+00  0.000000E+00  0.000000E+00  0.000000E+00                                                                                                                                                                                                                                                                                                                                                                                                                                                                                              
  3.750000E+02  1.250000E+02 -5.225000E+03 -8.984838E+07 -1.103356E+08 -1.224100E+08 -8.481967E-03  4.103633E+04 -5.915950E-03  1.097027E-05  5.034535E-12 -1.122484E-04 -1.974019E-12  9.550439E-06 -1.025431E-12 -1.012781E-04  0.000000E+00  0.000000E+00  0.000000E+00  0.000000E+00  0.000000E+00  0.000000E+00  0.000000E+00                                                                                                                                                                                                                                                                                                                                                                                                                                                                                              
  6.250000E+02  1.250000E+02 -5.225000E+03 -8.987586E+07 -1.095384E+08 -1.214458E+08 -2.132210E-02  3.746714E+04 -6.121429E-03 -4.090348E-05  3.346558E-12 -1.081561E-04 -4.962320E-12  8.719778E-06 -1.061048E-12 -1.490596E-04  0.000000E+00  0.000000E+00  0.000000E+00  0.000000E+00  0.000000E+00  0.000000E+00  0.000000E+00                                                                                                                                                                                                                                                                                                                                                                                                                                                                                              
  7.600000E+02  1.250000E+02 -5.225000E+03 -8.988778E+07 -1.087615E+08 -1.205302E+08 -2.858346E-02  1.354873E+04  6.083029E-03 -9.006103E-05  2.839913E-12 -1.063075E-04 -6.652268E-12  3.153214E-06  1.054392E-12 -1.963686E-04  0.000000E+00  0.000000E+00  0.000000E+00  0.000000E+00  0.000000E+00  0.000000E+00  0.000000E+00                                                                                                                                                                                                                                                                                                                                                                                                                                                                                              
  7.800000E+02  1.250000E+02 -5.225000E+03 -8.989159E+07 -1.084381E+08 -1.201587E+08 -2.582476E-02 -1.294391E-01  7.925627E-03 -1.103308E-04  3.200636E-12 -1.064208E-04 -6.010232E-12 -3.012454E-11  1.373775E-12 -2.167516E-04  0.000000E+00  0.000000E+00  0.000000E+00  0.000000E+00  0.000000E+00  0.000000E+00  0.000000E+00                                                                                                                                                                                                                                                                                                                                                                                                                                                                                              
  8.000000E+02  1.250000E+02 -5.225000E+03 -8.988778E+07 -1.087615E+08 -1.205302E+08 -2.144887E-02 -1.354875E+04 -1.134692E-02 -9.006104E-05  3.322813E-12 -1.063075E-04 -4.991823E-12 -3.153218E-06 -1.966799E-12 -1.963686E-04  0.000000E+00  0.000000E+00  0.000000E+00  0.000000E+00  0.000000E+00  0.000000E+00  0.000000E+00                                                                                                                                                                                                                                                                                                                                                                                                                                                                                              
  9.350000E+02  1.250000E+02 -5.225000E+03 -8.987586E+07 -1.095384E+08 -1.214458E+08 -8.821285E-03 -3.746711E+04 -1.708199E-03 -4.090350E-05  3.409943E-12 -1.081561E-04 -2.052989E-12 -8.719772E-06 -2.960878E-13 -1.490596E-04  0.000000E+00  0.000000E+00  0.000000E+00  0.000000E+00  0.000000E+00  0.000000E+00  0.000000E+00                                                                                                                                                                                                                                                                                                                                                                                                                                                                                              
  1.185000E+03  1.250000E+02 -5.225000E+03 -8.984838E+07 -1.103356E+08 -1.224100E+08  1.024892E-03 -4.103632E+04  1.752622E-03  1.097027E-05  3.972964E-12 -1.122484E-04  2.385246E-13 -9.550438E-06  3.037878E-13 -1.012782E-04  0.000000E+00  0.000000E+00  0.000000E+00  0.000000E+00  0.000000E+00  0.000000E+00  0.000000E+00                                                                                                                                                                                                                                                                                                                                                                                                                                                                                              
  1.435000E+03  1.250000E+02 -5.225000E+03 -8.983340E+07 -1.108063E+08 -1.229835E+08  7.678133E-04 -1.382578E+04  9.462534E-06  4.155133E-05  4.442635E-12 -1.150698E-04  1.786942E-13 -3.217692E-06  1.640172E-15 -7.351847E-05  0.000000E+00  0.000000E+00  0.000000E+00  0.000000E+00  0.000000E+00  0.000000E+00  0.000000E+00                                                                                                                                                                                                                                                                                                                                                                                                                                                                                              
  1.250000E+02  1.250000E+02 -4.975000E+03 -8.621386E+07 -1.064005E+08 -1.180633E+08  1.421352E-04  1.877853E+04 -1.345141E-03  4.340883E-05  7.731478E-12 -1.075495E-04  3.307932E-14  4.370352E-06 -2.331577E-13 -6.414069E-05  0.000000E+00  0.000000E+00  0.000000E+00  0.000000E+00  0.000000E+00  0.000000E+00  0.000000E+00                                                                                                                                                                                                                                                                                                                                                                                                                                                                                              
  3.750000E+02  1.250000E+02 -4.975000E+03 -8.621974E+07 -1.059116E+08 -1.174888E+08 -4.140023E-03  5.602918E+04 -1.154058E-02  1.261678E-05  6.463175E-12 -1.065248E-04 -9.635131E-13  1.303975E-05 -2.000367E-12 -9.390801E-05  0.000000E+00  0.000000E+00  0.000000E+00  0.000000E+00  0.000000E+00  0.000000E+00  0.000000E+00                                                                                                                                                                                                                                                                                                                                                                                                                                                                                              
  6.250000E+02  1.250000E+02 -4.975000E+03 -8.622439E+07 -1.050236E+08 -1.164439E+08 -2.090141E-02  5.463292E+04 -1.379126E-02 -4.287450E-05  4.141728E-12 -1.045044E-04 -4.864413E-12  1.271479E-05 -2.390486E-12 -1.473789E-04  0.000000E+00  0.000000E+00  0.000000E+00  0.000000E+00  0.000000E+00  0.000000E+00  0.000000E+00                                                                                                                                                                                                                                                                                                                                                                                                                                                                                              
  7.600000E+02  1.250000E+02 -4.975000E+03 -8.625646E+07 -1.041201E+08 -1.153830E+08 -2.992350E-02  3.437904E+04 -5.904711E-03 -1.013684E-04  3.202923E-12 -1.028237E-04 -6.964135E-12  8.001080E-06 -1.023483E-12 -2.041922E-04  0.000000E+00  0.000000E+00  0.000000E+00  0.000000E+00  0.000000E+00  0.000000E+00  0.000000E+00                                                                                                                                                                                                                                                                                                                                                                                                                                                                                              
  7.800000E+02  1.250000E+02 -4.975000E+03 -8.625940E+07 -1.037255E+08 -1.149235E+08 -2.522084E-02 -1.078902E-01 -1.021311E-02 -1.260400E-04  3.296370E-12 -1.023734E-04 -5.869679E-12 -2.510944E-11 -1.770273E-12 -2.284135E-04  0.000000E+00  0.000000E+00  0.000000E+00  0.000000E+00  0.000000E+00  0.000000E+00  0.000000E+00                                                                                                                                                                                                                                                                                                                                                                                                                                                                                              
  8.000000E+02  1.250000E+02 -4.975000E+03 -8.625646E+07 -1.041201E+08 -1.153830E+08 -1.989654E-02 -3.437895E+04 -1.178089E-02 -1.013685E-04  3.292763E-12 -1.028237E-04 -4.630549E-12 -8.001058E-06 -2.042021E-12 -2.041922E-04  0.000000E+00  0.000000E+00  0.000000E+00  0.000000E+00  0.000000E+00  0.000000E+00  0.000000E+00                                                                                                                                                                                                                                                                                                                                                                                                                                                                                              
  9.350000E+02  1.250000E+02 -4.975000E+03 -8.622439E+07 -1.050236E+08 -1.164439E+08 -6.484763E-03 -5.463289E+04 -3.297911E-03 -4.287453E-05  3.874388E-12 -1.045044E-04 -1.509208E-12 -1.271479E-05 -5.716380E-13 -1.473790E-04  0.000000E+00  0.000000E+00  0.000000E+00  0.000000E+00  0.000000E+00  0.000000E+00  0.000000E+00                                                                                                                                                                                                                                                                                                                                                                                                                                                                                              
  1.185000E+03  1.250000E+02 -4.975000E+03 -8.621974E+07 -1.059116E+08 -1.174888E+08  2.269757E-03 -5.602924E+04 -2.130043E-04  1.261676E-05  4.817833E-12 -1.065248E-04  5.282435E-13 -1.303976E-05 -3.692075E-14 -9.390805E-05  0.000000E+00  0.000000E+00  0.000000E+00  0.000000E+00  0.000000E+00  0.000000E+00  0.000000E+00                                                                                                                                                                                                                                                                                                                                                                                                                                                                                              
  1.435000E+03  1.250000E+02 -4.975000E+03 -8.621386E+07 -1.064005E+08 -1.180633E+08  6.062787E-06 -1.877855E+04  8.729716E-05  4.340881E-05  5.227116E-12 -1.075496E-04  1.411000E-15 -4.370357E-06  1.513151E-14 -6.414074E-05  0.000000E+00  0.000000E+00  0.000000E+00  0.000000E+00  0.000000E+00  0.000000E+00  0.000000E+00                                                                                                                                                                                                                                                                                                                                                                                                                                                                                              
  1.250000E+02  1.250000E+02 -4.725000E+03 -8.261260E+07 -1.019991E+08 -1.131420E+08  7.571829E-03  1.085840E+04  7.169439E-04  4.410065E-05  9.595472E-12 -9.956622E-05  1.762202E-12  2.527090E-06  1.242703E-13 -5.546556E-05  0.000000E+00  0.000000E+00  0.000000E+00  0.000000E+00  0.000000E+00  0.000000E+00  0.000000E+00                                                                                                                                                                                                                                                                                                                                                                                                                                                                                              
  3.750000E+02  1.250000E+02 -4.725000E+03 -8.257188E+07 -1.014980E+08 -1.125739E+08  1.070615E-04  5.610129E+04 -1.389365E-02  1.629230E-05  8.252784E-12 -1.001536E-04  2.491658E-14  1.305653E-05 -2.408232E-12 -8.386128E-05  0.000000E+00  0.000000E+00  0.000000E+00  0.000000E+00  0.000000E+00  0.000000E+00  0.000000E+00                                                                                                                                                                                                                                                                                                                                                                                                                                                                                              
  6.250000E+02  1.250000E+02 -4.725000E+03 -8.260457E+07 -1.005319E+08 -1.114415E+08 -2.552065E-02  6.495540E+04 -1.966433E-02 -4.611312E-05  5.102308E-12 -9.853990E-05 -5.939454E-12  1.511716E-05 -3.408483E-12 -1.446530E-04  0.000000E+00  0.000000E+00  0.000000E+00  0.000000E+00  0.000000E+00  0.000000E+00  0.000000E+00                                                                                                                                                                                                                                                                                                                                                                                                                                                                                              
  7.600000E+02  1.250000E+02 -4.725000E+03 -8.252130E+07 -9.940608E+07 -1.101477E+08 -4.081795E-02 -1.515838E+04 -1.470833E-02 -1.094050E-04  3.850639E-12 -9.830231E-05 -9.499615E-12 -3.527829E-06 -2.549443E-12 -2.077073E-04  0.000000E+00  0.000000E+00  0.000000E+00  0.000000E+00  0.000000E+00  0.000000E+00  0.000000E+00                                                                                                                                                                                                                                                                                                                                                                                                                                                                                              
  7.800000E+02  1.250000E+02 -4.725000E+03 -8.250734E+07 -9.892080E+07 -1.096034E+08 -3.572349E-02 -2.520180E-01 -1.686556E-02 -1.381843E-04  4.038444E-12 -9.958041E-05 -8.313975E-12 -5.865248E-11 -2.923363E-12 -2.377647E-04  0.000000E+00  0.000000E+00  0.000000E+00  0.000000E+00  0.000000E+00  0.000000E+00  0.000000E+00                                                                                                                                                                                                                                                                                                                                                                                                                                                                                              
  8.000000E+02  1.250000E+02 -4.725000E+03 -8.252130E+07 -9.940608E+07 -1.101477E+08 -2.974759E-02  1.515858E+04 -2.173051E-02 -1.094051E-04  4.129616E-12 -9.830231E-05 -6.923197E-12  3.527877E-06 -3.766622E-12 -2.077074E-04  0.000000E+00  0.000000E+00  0.000000E+00  0.000000E+00  0.000000E+00  0.000000E+00  0.000000E+00                                                                                                                                                                                                                                                                                                                                                                                                                                                                                              
  9.350000E+02  1.250000E+02 -4.725000E+03 -8.260457E+07 -1.005319E+08 -1.114415E+08 -1.156958E-02 -6.495547E+04 -7.228837E-03 -4.611317E-05  5.091642E-12 -9.853990E-05 -2.692605E-12 -1.511717E-05 -1.252998E-12 -1.446531E-04  0.000000E+00  0.000000E+00  0.000000E+00  0.000000E+00  0.000000E+00  0.000000E+00  0.000000E+00                                                                                                                                                                                                                                                                                                                                                                                                                                                                                              
  1.185000E+03  1.250000E+02 -4.725000E+03 -8.257189E+07 -1.014980E+08 -1.125739E+08  1.622511E-03 -5.610149E+04 -9.009303E-04  1.629226E-05  6.340858E-12 -1.001536E-04  3.776092E-13 -1.305658E-05 -1.561613E-13 -8.386133E-05  0.000000E+00  0.000000E+00  0.000000E+00  0.000000E+00  0.000000E+00  0.000000E+00  0.000000E+00                                                                                                                                                                                                                                                                                                                                                                                                                                                                                              