Title="TREACTMECH V1.0-OMP-MPI stress-strain.tec: Total Stresses (Pa), Strains"                                                                                                                                                                                                                                                                                                                                                                                                                                                                                                                                                                                                                                                                                                                                                 
Variables= "X(m)"     "Y(m)"      "Z(m)"    "Sigma_xx"    "Sigma_yy"    "Sigma_zz"    "Sigma_yz"    "Sigma_xz"    "Sigma_xy"   "Strain_xx"   "Strain_yy"   "Strain_zz"   "Strain_yz"   "Strain_xz"   "Strain_xy"  "Vol_Strain"   "E_fail_xx"   "E_fail_yy"   "E_fail_zz"  "E_fail_yz2"  "E_fail_xz2"  "E_fail_xy2"  "E_fail_vol"                                                                                                                                                                                                                                                                                                                                                                                                                                                                                                
Zone T= "1.00000000E+09 sec" I=     9 J=    10 K=    23 F=Point
  1.250000E+02  1.250000E+02 -5.425000E+03 -9.271092E+07 -1.143129E+08 -1.269262E+08  2.215949E-02  5.088320E+03 -3.692772E-02  4.053826E-05  8.618191E-12 -1.234650E-04  5.157207E-12  1.184211E-06 -6.400805E-12 -8.292671E-05  0.000000E+00  0.000000E+00  0.000000E+00  0.000000E+00  0.000000E+00  0.000000E+00  0.000000E+00                                                                                                                                                                                                                                                                                                                                                                                                                                                                                              
  3.750000E+02  1.250000E+02 -5.425000E+03 -9.274450E+07 -1.138708E+08 -1.263542E+08  1.201696E-01  1.531818E+04  2.230223E-02  9.966738E-06  2.413404E-12 -1.178509E-04  2.796724E-11  3.565021E-06  3.865721E-12 -1.078842E-04  0.000000E+00  0.000000E+00  0.000000E+00  0.000000E+00  0.000000E+00  0.000000E+00  0.000000E+00                                                                                                                                                                                                                                                                                                                                                                                                                                                                                              
  6.250000E+02  1.250000E+02 -5.425000E+03 -9.279935E+07 -1.131511E+08 -1.254348E+08  5.345328E-01  1.493027E+04  2.547599E-01 -3.968061E-05 -1.024057E-11 -1.097955E-04  1.244025E-10  3.474742E-06  4.415838E-11 -1.494761E-04  0.000000E+00  0.000000E+00  0.000000E+00  0.000000E+00  0.000000E+00  0.000000E+00  0.000000E+00                                                                                                                                                                                                                                                                                                                                                                                                                                                                                              
  7.600000E+02  1.250000E+02 -5.425000E+03 -9.283611E+07 -1.124814E+08 -1.246166E+08  9.583367E-01  1.082305E+04  1.435383E-01 -8.437700E-05 -3.004971E-11 -1.056736E-04  2.230350E-10  2.518863E-06  2.487998E-11 -1.900506E-04  0.000000E+00  0.000000E+00  0.000000E+00  0.000000E+00  0.000000E+00  0.000000E+00  0.000000E+00                                                                                                                                                                                                                                                                                                                                                                                                                                                                                              
  7.800000E+02  1.250000E+02 -5.425000E+03 -9.284408E+07 -1.122089E+08 -1.242995E+08  1.074069E+00  1.230251E+00  2.393543E-01 -1.018564E-04 -4.396778E-11 -1.054199E-04  2.499694E-10  2.863180E-10  4.148808E-11 -2.072763E-04  0.000000E+00  0.000000E+00  0.000000E+00  0.000000E+00  0.000000E+00  0.000000E+00  0.000000E+00                                                                                                                                                                                                                                                                                                                                                                                                                                                                                              
  8.000000E+02  1.250000E+02 -5.425000E+03 -9.283611E+07 -1.124814E+08 -1.246166E+08  9.204693E-01 -1.082011E+04  1.165870E+00 -8.437680E-05 -4.413833E-11 -1.056736E-04  2.142220E-10 -2.518180E-06  2.020842E-10 -1.900505E-04  0.000000E+00  0.000000E+00  0.000000E+00  0.000000E+00  0.000000E+00  0.000000E+00  0.000000E+00                                                                                                                                                                                                                                                                                                                                                                                                                                                                                              
  9.350000E+02  1.250000E+02 -5.425000E+03 -9.279935E+07 -1.131511E+08 -1.254348E+08  3.285015E-01 -1.492878E+04  4.455877E-01 -3.968054E-05 -1.363074E-11 -1.097955E-04  7.645259E-11 -3.474394E-06  7.723520E-11 -1.494760E-04  0.000000E+00  0.000000E+00  0.000000E+00  0.000000E+00  0.000000E+00  0.000000E+00  0.000000E+00                                                                                                                                                                                                                                                                                                                                                                                                                                                                                              
  1.185000E+03  1.250000E+02 -5.425000E+03 -9.274450E+07 -1.138708E+08 -1.263542E+08 -2.162695E-02 -1.531798E+04  7.558871E-03  9.966710E-06  7.741034E-12 -1.178509E-04 -5.033268E-12 -3.564974E-06  1.310204E-12 -1.078842E-04  0.000000E+00  0.000000E+00  0.000000E+00  0.000000E+00  0.000000E+00  0.000000E+00  0.000000E+00                                                                                                                                                                                                                                                                                                                                                                                                                                                                                              
  1.435000E+03  1.250000E+02 -5.425000E+03 -9.271092E+07 -1.143129E+08 -1.269262E+08  1.135695E-02 -5.088265E+03  4.462543E-02  4.053826E-05  8.255284E-12 -1.234650E-04  2.643119E-12 -1.184199E-06  7.735074E-12 -8.292674E-05  0.000000E+00  0.000000E+00  0.000000E+00  0.000000E+00  0.000000E+00  0.000000E+00  0.000000E+00                                                                                                                                                                                                                                                                                                                                                                                                                                                                                              
  1.250000E+02  1.250000E+02 -5.225000E+03 -8.983033E+07 -1.108033E+08 -1.229835E+08 -4.413644E-03  1.383087E+04 -8.576895E-03  4.155074E-05  4.282549E-12 -1.153344E-04 -1.027193E-12  3.218877E-06 -1.486662E-12 -7.378369E-05  0.000000E+00  0.000000E+00  0.000000E+00  0.000000E+00  0.000000E+00  0.000000E+00  0.000000E+00                                                                                                                                                                                                                                                                                                                                                                                                                                                                                              
  3.750000E+02  1.250000E+02 -5.225000E+03 -8.984533E+07 -1.103326E+08 -1.224100E+08  3.145635E-02  4.104961E+04  3.123643E-02  1.097032E-05  1.460891E-12 -1.125114E-04  7.320878E-12  9.553531E-06  5.414314E-12 -1.015411E-04  0.000000E+00  0.000000E+00  0.000000E+00  0.000000E+00  0.000000E+00  0.000000E+00  0.000000E+00                                                                                                                                                                                                                                                                                                                                                                                                                                                                                              
  6.250000E+02  1.250000E+02 -5.225000E+03 -8.987282E+07 -1.095354E+08 -1.214458E+08 -2.048236E-02  3.747753E+04  1.033459E-01 -4.090295E-05  8.355926E-15 -1.084167E-04 -4.766886E-12  8.722195E-06  1.791330E-11 -1.493197E-04  0.000000E+00  0.000000E+00  0.000000E+00  0.000000E+00  0.000000E+00  0.000000E+00  0.000000E+00                                                                                                                                                                                                                                                                                                                                                                                                                                                                                              
  7.600000E+02  1.250000E+02 -5.225000E+03 -8.988475E+07 -1.087585E+08 -1.205302E+08 -7.362339E-02  1.354508E+04  3.847344E-02 -9.006079E-05 -2.810785E-12 -1.065671E-04 -1.713447E-11  3.152366E-06  6.668729E-12 -1.966278E-04  0.000000E+00  0.000000E+00  0.000000E+00  0.000000E+00  0.000000E+00  0.000000E+00  0.000000E+00                                                                                                                                                                                                                                                                                                                                                                                                                                                                                              
  7.800000E+02  1.250000E+02 -5.225000E+03 -8.988856E+07 -1.084350E+08 -1.201586E+08 -5.192944E-02 -1.085551E+00  1.760079E-02 -1.103308E-04 -6.834750E-12 -1.066804E-04 -1.208561E-11 -2.526417E-10  3.050804E-12 -2.170113E-04  0.000000E+00  0.000000E+00  0.000000E+00  0.000000E+00  0.000000E+00  0.000000E+00  0.000000E+00                                                                                                                                                                                                                                                                                                                                                                                                                                                                                              
  8.000000E+02  1.250000E+02 -5.225000E+03 -8.988475E+07 -1.087585E+08 -1.205302E+08 -9.407951E-03 -1.354643E+04  1.555265E-01 -9.006081E-05 -9.405082E-12 -1.065671E-04 -2.189525E-12 -3.152678E-06  2.695793E-11 -1.966279E-04  0.000000E+00  0.000000E+00  0.000000E+00  0.000000E+00  0.000000E+00  0.000000E+00  0.000000E+00                                                                                                                                                                                                                                                                                                                                                                                                                                                                                              
  9.350000E+02  1.250000E+02 -5.225000E+03 -8.987282E+07 -1.095354E+08 -1.214458E+08  1.466818E-02 -3.747814E+04  1.750035E-01 -4.090296E-05 -1.738515E-12 -1.084167E-04  3.413745E-12 -8.722337E-06  3.033395E-11 -1.493197E-04  0.000000E+00  0.000000E+00  0.000000E+00  0.000000E+00  0.000000E+00  0.000000E+00  0.000000E+00                                                                                                                                                                                                                                                                                                                                                                                                                                                                                              
  1.185000E+03  1.250000E+02 -5.225000E+03 -8.984533E+07 -1.103326E+08 -1.224100E+08  1.127767E-02 -4.104990E+04  5.739588E-02  1.097031E-05  6.769365E-12 -1.125114E-04  2.624668E-12 -9.553598E-06  9.948620E-12 -1.015411E-04  0.000000E+00  0.000000E+00  0.000000E+00  0.000000E+00  0.000000E+00  0.000000E+00  0.000000E+00                                                                                                                                                                                                                                                                                                                                                                                                                                                                                              
  1.435000E+03  1.250000E+02 -5.225000E+03 -8.983033E+07 -1.108033E+08 -1.229835E+08  1.427313E-03 -1.383097E+04  2.342137E-02  4.155073E-05  8.194670E-12 -1.153345E-04  3.321806E-13 -3.218899E-06  4.059704E-12 -7.378373E-05  0.000000E+00  0.000000E+00  0.000000E+00  0.000000E+00  0.000000E+00  0.000000E+00  0.000000E+00                                                                                                                                                                                                                                                                                                                                                                                                                                                                                              
  1.250000E+02  1.250000E+02 -4.975000E+03 -8.621037E+07 -1.063970E+08 -1.180633E+08  4.562901E-02  1.879082E+04  4.073101E-03  4.340952E-05  4.161394E-12 -1.078511E-04  1.061930E-11  4.373213E-06  7.060041E-13 -6.444153E-05  0.000000E+00  0.000000E+00  0.000000E+00  0.000000E+00  0.000000E+00  0.000000E+00  0.000000E+00                                                                                                                                                                                                                                                                                                                                                                                                                                                                                              
  3.750000E+02  1.250000E+02 -4.975000E+03 -8.621627E+07 -1.059081E+08 -1.174887E+08  1.013500E-01  5.606150E+04  1.004444E-01  1.261712E-05  6.341250E-13 -1.068241E-04  2.358732E-11  1.304727E-05  1.741037E-11 -9.420696E-05  0.000000E+00  0.000000E+00  0.000000E+00  0.000000E+00  0.000000E+00  0.000000E+00  0.000000E+00                                                                                                                                                                                                                                                                                                                                                                                                                                                                                              
  6.250000E+02  1.250000E+02 -4.975000E+03 -8.622094E+07 -1.050202E+08 -1.164439E+08  1.701331E-01  5.466480E+04  2.917504E-01 -4.287513E-05 -1.295252E-11 -1.047995E-04  3.959531E-11  1.272221E-05  5.057006E-11 -1.476746E-04  0.000000E+00  0.000000E+00  0.000000E+00  0.000000E+00  0.000000E+00  0.000000E+00  0.000000E+00                                                                                                                                                                                                                                                                                                                                                                                                                                                                                              
  7.600000E+02  1.250000E+02 -4.975000E+03 -8.625306E+07 -1.041167E+08 -1.153830E+08  1.886030E-01  3.440359E+04  2.073727E-01 -1.013723E-04 -2.942599E-11 -1.031157E-04  4.389383E-11  8.006793E-06  3.594460E-11 -2.044880E-04  0.000000E+00  0.000000E+00  0.000000E+00  0.000000E+00  0.000000E+00  0.000000E+00  0.000000E+00                                                                                                                                                                                                                                                                                                                                                                                                                                                                                              
  7.800000E+02  1.250000E+02 -4.975000E+03 -8.625598E+07 -1.037221E+08 -1.149234E+08  1.820577E-01  1.950315E-01  3.137047E-01 -1.260432E-04 -3.728723E-11 -1.026648E-04  4.237052E-11  4.538993E-11  5.437549E-11 -2.287080E-04  0.000000E+00  0.000000E+00  0.000000E+00  0.000000E+00  0.000000E+00  0.000000E+00  0.000000E+00                                                                                                                                                                                                                                                                                                                                                                                                                                                                                              
  8.000000E+02  1.250000E+02 -4.975000E+03 -8.625306E+07 -1.041167E+08 -1.153830E+08  1.670427E-01 -3.440305E+04  8.961482E-01 -1.013723E-04 -3.498687E-11 -1.031156E-04  3.887608E-11 -8.006667E-06  1.553324E-10 -2.044879E-04  0.000000E+00  0.000000E+00  0.000000E+00  0.000000E+00  0.000000E+00  0.000000E+00  0.000000E+00                                                                                                                                                                                                                                                                                                                                                                                                                                                                                              
  9.350000E+02  1.250000E+02 -4.975000E+03 -8.622094E+07 -1.050202E+08 -1.164439E+08  8.890439E-02 -5.466430E+04  3.424556E-01 -4.287513E-05 -1.056957E-11 -1.047995E-04  2.069084E-11 -1.272210E-05  5.935898E-11 -1.476746E-04  0.000000E+00  0.000000E+00  0.000000E+00  0.000000E+00  0.000000E+00  0.000000E+00  0.000000E+00                                                                                                                                                                                                                                                                                                                                                                                                                                                                                              
  1.185000E+03  1.250000E+02 -4.975000E+03 -8.621627E+07 -1.059081E+08 -1.174887E+08  1.412669E-02 -5.606143E+04  2.105318E-02  1.261712E-05  6.487879E-12 -1.068241E-04  3.287725E-12 -1.304725E-05  3.649218E-12 -9.420698E-05  0.000000E+00  0.000000E+00  0.000000E+00  0.000000E+00  0.000000E+00  0.000000E+00  0.000000E+00                                                                                                                                                                                                                                                                                                                                                                                                                                                                                              
  1.435000E+03  1.250000E+02 -4.975000E+03 -8.621037E+07 -1.063970E+08 -1.180633E+08  6.513159E-03 -1.879085E+04  2.907410E-02  4.340951E-05  5.475281E-12 -1.078511E-04  1.515816E-12 -4.373220E-06  5.039511E-12 -6.444156E-05  0.000000E+00  0.000000E+00  0.000000E+00  0.000000E+00  0.000000E+00  0.000000E+00  0.000000E+00                                                                                                                                                                                                                                                                                                                                                                                                                                                                                              
  1.250000E+02  1.250000E+02 -4.725000E+03 -8.260839E+07 -1.019950E+08 -1.131421E+08  1.020686E-02  1.087865E+04 -1.812601E-02  4.410457E-05  6.580260E-12 -9.993035E-05  2.375456E-12  2.531803E-06 -3.141842E-12 -5.582577E-05  0.000000E+00  0.000000E+00  0.000000E+00  0.000000E+00  0.000000E+00  0.000000E+00  0.000000E+00                                                                                                                                                                                                                                                                                                                                                                                                                                                                                              
  3.750000E+02  1.250000E+02 -4.725000E+03 -8.256769E+07 -1.014939E+08 -1.125739E+08  2.371950E-02  5.617087E+04 -3.753989E-02  1.629533E-05  5.691440E-12 -1.005154E-04  5.520270E-12  1.307272E-05 -6.506915E-12 -8.422009E-05  0.000000E+00  0.000000E+00  0.000000E+00  0.000000E+00  0.000000E+00  0.000000E+00  0.000000E+00                                                                                                                                                                                                                                                                                                                                                                                                                                                                                              
  6.250000E+02  1.250000E+02 -4.725000E+03 -8.260050E+07 -1.005277E+08 -1.114414E+08  4.882504E-02  6.504608E+04 -4.160294E-02 -4.611938E-05  3.112250E-12 -9.889127E-05  1.136312E-11  1.513826E-05 -7.211177E-12 -1.450107E-04  0.000000E+00  0.000000E+00  0.000000E+00  0.000000E+00  0.000000E+00  0.000000E+00  0.000000E+00                                                                                                                                                                                                                                                                                                                                                                                                                                                                                              
  7.600000E+02  1.250000E+02 -4.725000E+03 -8.251716E+07 -9.940188E+07 -1.101474E+08  7.439827E-02 -1.521280E+04 -1.279900E-01 -1.094105E-04 -1.784493E-12 -9.864744E-05  1.731481E-11 -3.540495E-06 -2.218494E-11 -2.080579E-04  0.000000E+00  0.000000E+00  0.000000E+00  0.000000E+00  0.000000E+00  0.000000E+00  0.000000E+00                                                                                                                                                                                                                                                                                                                                                                                                                                                                                              
  7.800000E+02  1.250000E+02 -4.725000E+03 -8.250325E+07 -9.891663E+07 -1.096032E+08  8.311425E-02 -3.159967E-01 -1.359465E-01 -1.381912E-04 -6.140967E-12 -9.992755E-05  1.934329E-11 -7.354234E-11 -2.356406E-11 -2.381188E-04  0.000000E+00  0.000000E+00  0.000000E+00  0.000000E+00  0.000000E+00  0.000000E+00  0.000000E+00                                                                                                                                                                                                                                                                                                                                                                                                                                                                                              
  8.000000E+02  1.250000E+02 -4.725000E+03 -8.251716E+07 -9.940188E+07 -1.101474E+08  7.647705E-02  1.521248E+04  1.125733E-01 -1.094105E-04 -7.472056E-12 -9.864746E-05  1.779861E-11  3.540421E-06  1.951270E-11 -2.080580E-04  0.000000E+00  0.000000E+00  0.000000E+00  0.000000E+00  0.000000E+00  0.000000E+00  0.000000E+00                                                                                                                                                                                                                                                                                                                                                                                                                                                                                              
  9.350000E+02  1.250000E+02 -4.725000E+03 -8.260050E+07 -1.005277E+08 -1.114414E+08  3.884744E-02 -6.504657E+04  4.754433E-02 -4.611941E-05 -8.707986E-13 -9.889129E-05  9.041018E-12 -1.513837E-05  8.241016E-12 -1.450107E-04  0.000000E+00  0.000000E+00  0.000000E+00  0.000000E+00  0.000000E+00  0.000000E+00  0.000000E+00                                                                                                                                                                                                                                                                                                                                                                                                                                                                                              
  1.185000E+03  1.250000E+02 -4.725000E+03 -8.256769E+07 -1.014939E+08 -1.125739E+08  1.522068E-02 -5.617120E+04  3.078836E-03  1.629531E-05  4.101775E-12 -1.005154E-04  3.542329E-12 -1.307280E-05  5.336649E-13 -8.422014E-05  0.000000E+00  0.000000E+00  0.000000E+00  0.000000E+00  0.000000E+00  0.000000E+00  0.000000E+00                                                                                                                                                                                                                                                                                                                                                                                                                                                                                              