Title="TREACTMECH V1.0-OMP-MPI stress-strain.tec: Total Stresses (Pa), Strains"                                                                                                                                                                                                                                                                                                                                                                                                                                                                                                                                                                                                                                                                                                                                                 
Variables= "X(m)"     "Y(m)"      "Z(m)"    "Sigma_xx"    "Sigma_yy"    "Sigma_zz"    "Sigma_yz"    "Sigma_xz"    "Sigma_xy"   "Strain_xx"   "Strain_yy"   "Strain_zz"   "Strain_yz"   "Strain_xz"   "Strain_xy"  "Vol_Strain"   "E_fail_xx"   "E_fail_yy"   "E_fail_zz"  "E_fail_yz2"  "E_fail_xz2"  "E_fail_xy2"  "E_fail_vol"                                                                                                                                                                                                                                                                                                                                                                                                                                                                                                
Zone T= "5.00000000E-02 sec" I=     9 J=    10 K=    23 F=Point
  1.250000E+02  1.250000E+02 -5.425000E+03 -9.244471E+07 -1.140473E+08 -1.269273E+08 -2.490622E-03  5.150869E+03 -2.755503E-03  4.059467E-05  1.114369E-11 -1.465776E-04 -5.796458E-13  1.198769E-06 -4.776206E-13 -1.059830E-04  0.000000E+00  0.000000E+00  0.000000E+00  0.000000E+00  0.000000E+00  0.000000E+00  0.000000E+00                                                                                                                                                                                                                                                                                                                                                                                                                                                                                              
  3.750000E+02  1.250000E+02 -5.425000E+03 -9.247866E+07 -1.136050E+08 -1.263544E+08 -2.562109E-03  1.547342E+04 -3.306578E-03  9.974542E-06  1.117927E-11 -1.408988E-04 -5.962830E-13  3.601149E-06 -5.731402E-13 -1.309242E-04  0.000000E+00  0.000000E+00  0.000000E+00  0.000000E+00  0.000000E+00  0.000000E+00  0.000000E+00                                                                                                                                                                                                                                                                                                                                                                                                                                                                                              
  6.250000E+02  1.250000E+02 -5.425000E+03 -9.253400E+07 -1.128851E+08 -1.254337E+08 -2.739652E-03  1.504780E+04 -3.494307E-03 -3.973477E-05  1.176727E-11 -1.327600E-04 -6.376028E-13  3.502094E-06 -6.056798E-13 -1.724948E-04  0.000000E+00  0.000000E+00  0.000000E+00  0.000000E+00  0.000000E+00  0.000000E+00  0.000000E+00                                                                                                                                                                                                                                                                                                                                                                                                                                                                                              
  7.600000E+02  1.250000E+02 -5.425000E+03 -9.257102E+07 -1.122153E+08 -1.246150E+08 -2.883336E-03  1.093332E+04 -3.691328E-03 -8.446164E-05  1.217284E-11 -1.285982E-04 -6.710426E-13  2.544525E-06 -6.398302E-13 -2.130598E-04  0.000000E+00  0.000000E+00  0.000000E+00  0.000000E+00  0.000000E+00  0.000000E+00  0.000000E+00                                                                                                                                                                                                                                                                                                                                                                                                                                                                                              
  7.800000E+02  1.250000E+02 -5.425000E+03 -9.257889E+07 -1.119428E+08 -1.242978E+08 -2.348545E-03 -3.210888E-02 -5.342999E-03 -1.019374E-04  1.219584E-11 -1.283411E-04 -5.465800E-13 -7.472743E-12 -9.261198E-13 -2.302785E-04  0.000000E+00  0.000000E+00  0.000000E+00  0.000000E+00  0.000000E+00  0.000000E+00  0.000000E+00                                                                                                                                                                                                                                                                                                                                                                                                                                                                                              
  8.000000E+02  1.250000E+02 -5.425000E+03 -9.257102E+07 -1.122153E+08 -1.246150E+08 -1.896228E-03 -1.093333E+04 -8.315752E-03 -8.446164E-05  1.214078E-11 -1.285982E-04 -4.413116E-13 -2.544529E-06 -1.441397E-12 -2.130598E-04  0.000000E+00  0.000000E+00  0.000000E+00  0.000000E+00  0.000000E+00  0.000000E+00  0.000000E+00                                                                                                                                                                                                                                                                                                                                                                                                                                                                                              
  9.350000E+02  1.250000E+02 -5.425000E+03 -9.253400E+07 -1.128851E+08 -1.254337E+08 -1.607910E-03 -1.504779E+04 -5.645117E-03 -3.973478E-05  1.154577E-11 -1.327600E-04 -3.742110E-13 -3.502092E-06 -9.784869E-13 -1.724948E-04  0.000000E+00  0.000000E+00  0.000000E+00  0.000000E+00  0.000000E+00  0.000000E+00  0.000000E+00                                                                                                                                                                                                                                                                                                                                                                                                                                                                                              
  1.185000E+03  1.250000E+02 -5.425000E+03 -9.247866E+07 -1.136050E+08 -1.263544E+08 -1.578558E-03 -1.547341E+04 -1.005819E-03  9.974534E-06  1.081007E-11 -1.408988E-04 -3.673800E-13 -3.601148E-06 -1.743420E-13 -1.309242E-04  0.000000E+00  0.000000E+00  0.000000E+00  0.000000E+00  0.000000E+00  0.000000E+00  0.000000E+00                                                                                                                                                                                                                                                                                                                                                                                                                                                                                              
  1.435000E+03  1.250000E+02 -5.425000E+03 -9.244471E+07 -1.140473E+08 -1.269273E+08 -1.512234E-03 -5.150867E+03  7.915562E-04  4.059466E-05  1.068057E-11 -1.465776E-04 -3.519442E-13 -1.198768E-06  1.372031E-13 -1.059830E-04  0.000000E+00  0.000000E+00  0.000000E+00  0.000000E+00  0.000000E+00  0.000000E+00  0.000000E+00                                                                                                                                                                                                                                                                                                                                                                                                                                                                                              
  1.250000E+02  1.250000E+02 -5.225000E+03 -8.956443E+07 -1.105382E+08 -1.229849E+08 -2.766501E-03  1.405407E+04 -3.211117E-03  4.162144E-05  1.117350E-11 -1.384262E-04 -6.438514E-13  3.270822E-06 -5.565935E-13 -9.680479E-05  0.000000E+00  0.000000E+00  0.000000E+00  0.000000E+00  0.000000E+00  0.000000E+00  0.000000E+00                                                                                                                                                                                                                                                                                                                                                                                                                                                                                              
  3.750000E+02  1.250000E+02 -5.225000E+03 -8.957985E+07 -1.100673E+08 -1.224103E+08 -3.273020E-03  4.167024E+04 -4.363025E-03  1.098603E-05  1.122428E-11 -1.355283E-04 -7.617342E-13  9.697971E-06 -7.562577E-13 -1.245423E-04  0.000000E+00  0.000000E+00  0.000000E+00  0.000000E+00  0.000000E+00  0.000000E+00  0.000000E+00                                                                                                                                                                                                                                                                                                                                                                                                                                                                                              
  6.250000E+02  1.250000E+02 -5.225000E+03 -8.960812E+07 -1.092698E+08 -1.214445E+08 -6.326697E-03  3.800553E+04 -4.128636E-03 -4.097688E-05  1.190701E-11 -1.313192E-04 -1.472421E-12  8.845079E-06 -7.156302E-13 -1.722961E-04  0.000000E+00  0.000000E+00  0.000000E+00  0.000000E+00  0.000000E+00  0.000000E+00  0.000000E+00                                                                                                                                                                                                                                                                                                                                                                                                                                                                                              
  7.600000E+02  1.250000E+02 -5.225000E+03 -8.962012E+07 -1.084927E+08 -1.205281E+08 -7.521001E-03  1.337411E+04 -3.550534E-03 -9.015997E-05  1.242571E-11 -1.294195E-04 -1.750373E-12  3.112575E-06 -6.154258E-13 -2.195795E-04  0.000000E+00  0.000000E+00  0.000000E+00  0.000000E+00  0.000000E+00  0.000000E+00  0.000000E+00                                                                                                                                                                                                                                                                                                                                                                                                                                                                                              
  7.800000E+02  1.250000E+02 -5.225000E+03 -8.962429E+07 -1.081694E+08 -1.201568E+08 -5.787129E-03 -4.358593E-02 -5.112191E-03 -1.104443E-04  1.248912E-11 -1.295404E-04 -1.346846E-12 -1.014381E-11 -8.861131E-13 -2.399847E-04  0.000000E+00  0.000000E+00  0.000000E+00  0.000000E+00  0.000000E+00  0.000000E+00  0.000000E+00                                                                                                                                                                                                                                                                                                                                                                                                                                                                                              
  8.000000E+02  1.250000E+02 -5.225000E+03 -8.962012E+07 -1.084927E+08 -1.205281E+08 -4.291545E-03 -1.337408E+04 -9.729016E-03 -9.015997E-05  1.245198E-11 -1.294195E-04 -9.987771E-13 -3.112568E-06 -1.686363E-12 -2.195795E-04  0.000000E+00  0.000000E+00  0.000000E+00  0.000000E+00  0.000000E+00  0.000000E+00  0.000000E+00                                                                                                                                                                                                                                                                                                                                                                                                                                                                                              
  9.350000E+02  1.250000E+02 -5.225000E+03 -8.960812E+07 -1.092698E+08 -1.214445E+08 -2.460189E-03 -3.800549E+04 -7.130961E-03 -4.097689E-05  1.172876E-11 -1.313192E-04 -5.725632E-13 -8.845068E-06 -1.236033E-12 -1.722961E-04  0.000000E+00  0.000000E+00  0.000000E+00  0.000000E+00  0.000000E+00  0.000000E+00  0.000000E+00                                                                                                                                                                                                                                                                                                                                                                                                                                                                                              
  1.185000E+03  1.250000E+02 -5.225000E+03 -8.957986E+07 -1.100673E+08 -1.224103E+08 -1.201078E-03 -4.167022E+04 -1.054378E-03  1.098602E-05  1.084222E-11 -1.355283E-04 -2.795284E-13 -9.697966E-06 -1.827588E-13 -1.245423E-04  0.000000E+00  0.000000E+00  0.000000E+00  0.000000E+00  0.000000E+00  0.000000E+00  0.000000E+00                                                                                                                                                                                                                                                                                                                                                                                                                                                                                              
  1.435000E+03  1.250000E+02 -5.225000E+03 -8.956443E+07 -1.105382E+08 -1.229849E+08 -1.614894E-03 -1.405406E+04  1.208463E-03  4.162143E-05  1.071364E-11 -1.384262E-04 -3.758365E-13 -3.270820E-06  2.094669E-13 -9.680481E-05  0.000000E+00  0.000000E+00  0.000000E+00  0.000000E+00  0.000000E+00  0.000000E+00  0.000000E+00                                                                                                                                                                                                                                                                                                                                                                                                                                                                                              
  1.250000E+02  1.250000E+02 -4.975000E+03 -8.594478E+07 -1.061328E+08 -1.180653E+08 -1.628098E-03  1.931532E+04 -3.413844E-03  4.353340E-05  1.181759E-11 -1.309245E-04 -3.789095E-13  4.495279E-06 -5.917330E-13 -8.739108E-05  0.000000E+00  0.000000E+00  0.000000E+00  0.000000E+00  0.000000E+00  0.000000E+00  0.000000E+00                                                                                                                                                                                                                                                                                                                                                                                                                                                                                              
  3.750000E+02  1.250000E+02 -4.975000E+03 -8.595161E+07 -1.056438E+08 -1.174895E+08 -2.893530E-03  5.751976E+04 -6.242685E-03  1.264961E-05  1.186259E-11 -1.297962E-04 -6.734152E-13  1.338665E-05 -1.082065E-12 -1.171466E-04  0.000000E+00  0.000000E+00  0.000000E+00  0.000000E+00  0.000000E+00  0.000000E+00  0.000000E+00                                                                                                                                                                                                                                                                                                                                                                                                                                                                                              
  6.250000E+02  1.250000E+02 -4.975000E+03 -8.595750E+07 -1.047553E+08 -1.164416E+08 -1.027683E-02  5.623132E+04 -5.660464E-03 -4.299577E-05  1.261157E-11 -1.275597E-04 -2.391740E-12  1.308679E-05 -9.811471E-13 -1.705555E-04  0.000000E+00  0.000000E+00  0.000000E+00  0.000000E+00  0.000000E+00  0.000000E+00  0.000000E+00                                                                                                                                                                                                                                                                                                                                                                                                                                                                                              
  7.600000E+02  1.250000E+02 -4.975000E+03 -8.599199E+07 -1.038521E+08 -1.153790E+08 -1.330910E-02  3.573767E+04 -3.131127E-03 -1.016827E-04  1.331321E-11 -1.257085E-04 -3.097445E-12  8.317275E-06 -5.427287E-13 -2.273911E-04  0.000000E+00  0.000000E+00  0.000000E+00  0.000000E+00  0.000000E+00  0.000000E+00  0.000000E+00                                                                                                                                                                                                                                                                                                                                                                                                                                                                                              
  7.800000E+02  1.250000E+02 -4.975000E+03 -8.599384E+07 -1.034568E+08 -1.149184E+08 -9.896126E-03 -2.124692E-02 -6.470645E-03 -1.263149E-04  1.344050E-11 -1.252238E-04 -2.303139E-12 -4.944824E-12 -1.121579E-12 -2.515387E-04  0.000000E+00  0.000000E+00  0.000000E+00  0.000000E+00  0.000000E+00  0.000000E+00  0.000000E+00                                                                                                                                                                                                                                                                                                                                                                                                                                                                                              
  8.000000E+02  1.250000E+02 -4.975000E+03 -8.599199E+07 -1.038521E+08 -1.153790E+08 -7.126932E-03 -3.573759E+04 -1.469746E-02 -1.016827E-04  1.338894E-11 -1.257085E-04 -1.658660E-12 -8.317257E-06 -2.547559E-12 -2.273911E-04  0.000000E+00  0.000000E+00  0.000000E+00  0.000000E+00  0.000000E+00  0.000000E+00  0.000000E+00                                                                                                                                                                                                                                                                                                                                                                                                                                                                                              
  9.350000E+02  1.250000E+02 -4.975000E+03 -8.595750E+07 -1.047553E+08 -1.164416E+08 -3.126474E-03 -5.623126E+04 -9.815968E-03 -4.299579E-05  1.243502E-11 -1.275597E-04 -7.276284E-13 -1.308678E-05 -1.701434E-12 -1.705555E-04  0.000000E+00  0.000000E+00  0.000000E+00  0.000000E+00  0.000000E+00  0.000000E+00  0.000000E+00                                                                                                                                                                                                                                                                                                                                                                                                                                                                                              
  1.185000E+03  1.250000E+02 -4.975000E+03 -8.595161E+07 -1.056438E+08 -1.174895E+08  5.688555E-04 -5.751974E+04 -1.379938E-03  1.264960E-05  1.133869E-11 -1.297962E-04  1.323905E-13 -1.338664E-05 -2.391893E-13 -1.171466E-04  0.000000E+00  0.000000E+00  0.000000E+00  0.000000E+00  0.000000E+00  0.000000E+00  0.000000E+00                                                                                                                                                                                                                                                                                                                                                                                                                                                                                              
  1.435000E+03  1.250000E+02 -4.975000E+03 -8.594478E+07 -1.061328E+08 -1.180653E+08  6.616605E-05 -1.931530E+04  1.256221E-03  4.353338E-05  1.119813E-11 -1.309245E-04  1.539891E-14 -4.495276E-06  2.177449E-13 -8.739109E-05  0.000000E+00  0.000000E+00  0.000000E+00  0.000000E+00  0.000000E+00  0.000000E+00  0.000000E+00                                                                                                                                                                                                                                                                                                                                                                                                                                                                                              
  1.250000E+02  1.250000E+02 -4.725000E+03 -8.234229E+07 -1.017319E+08 -1.131457E+08 -8.373008E-04  1.176629E+04 -3.186387E-03  4.437115E-05  1.218806E-11 -1.230430E-04 -1.948661E-13  2.738384E-06 -5.523070E-13 -7.867182E-05  0.000000E+00  0.000000E+00  0.000000E+00  0.000000E+00  0.000000E+00  0.000000E+00  0.000000E+00                                                                                                                                                                                                                                                                                                                                                                                                                                                                                              
  3.750000E+02  1.250000E+02 -4.725000E+03 -8.230235E+07 -1.012306E+08 -1.125760E+08 -2.650684E-03  5.951766E+04 -7.435131E-03  1.647516E-05  1.215221E-11 -1.235156E-04 -6.168972E-13  1.385162E-05 -1.288756E-12 -1.070405E-04  0.000000E+00  0.000000E+00  0.000000E+00  0.000000E+00  0.000000E+00  0.000000E+00  0.000000E+00                                                                                                                                                                                                                                                                                                                                                                                                                                                                                              
  6.250000E+02  1.250000E+02 -4.725000E+03 -8.234191E+07 -1.002645E+08 -1.114370E+08 -1.353719E-02  6.983222E+04 -6.852762E-03 -4.651920E-05  1.285611E-11 -1.213216E-04 -3.150529E-12  1.625214E-05 -1.187812E-12 -1.678408E-04  0.000000E+00  0.000000E+00  0.000000E+00  0.000000E+00  0.000000E+00  0.000000E+00  0.000000E+00                                                                                                                                                                                                                                                                                                                                                                                                                                                                                              
  7.600000E+02  1.250000E+02 -4.725000E+03 -8.225477E+07 -9.913535E+07 -1.101357E+08 -1.898504E-02 -1.837565E+04 -7.073123E-03 -1.097696E-04  1.362669E-11 -1.207342E-04 -4.418413E-12 -4.276589E-06 -1.226008E-12 -2.305037E-04  0.000000E+00  0.000000E+00  0.000000E+00  0.000000E+00  0.000000E+00  0.000000E+00  0.000000E+00                                                                                                                                                                                                                                                                                                                                                                                                                                                                                              
  7.800000E+02  1.250000E+02 -4.725000E+03 -8.224362E+07 -9.865184E+07 -1.095946E+08 -1.579065E-02 -3.375948E-02 -1.125682E-02 -1.386379E-04  1.370491E-11 -1.221290E-04 -3.674978E-12 -7.856888E-12 -1.951181E-12 -2.607668E-04  0.000000E+00  0.000000E+00  0.000000E+00  0.000000E+00  0.000000E+00  0.000000E+00  0.000000E+00                                                                                                                                                                                                                                                                                                                                                                                                                                                                                              
  8.000000E+02  1.250000E+02 -4.725000E+03 -8.225477E+07 -9.913535E+07 -1.101357E+08 -1.269817E-02  1.837583E+04 -1.857735E-02 -1.097696E-04  1.360149E-11 -1.207341E-04 -2.955262E-12  4.276632E-06 -3.220074E-12 -2.305037E-04  0.000000E+00  0.000000E+00  0.000000E+00  0.000000E+00  0.000000E+00  0.000000E+00  0.000000E+00                                                                                                                                                                                                                                                                                                                                                                                                                                                                                              
  9.350000E+02  1.250000E+02 -4.725000E+03 -8.234191E+07 -1.002645E+08 -1.114370E+08 -5.529194E-03 -6.983215E+04 -1.122810E-02 -4.651923E-05  1.267312E-11 -1.213216E-04 -1.286817E-12 -1.625213E-05 -1.946204E-12 -1.678408E-04  0.000000E+00  0.000000E+00  0.000000E+00  0.000000E+00  0.000000E+00  0.000000E+00  0.000000E+00                                                                                                                                                                                                                                                                                                                                                                                                                                                                                              
  1.185000E+03  1.250000E+02 -4.725000E+03 -8.230235E+07 -1.012306E+08 -1.125760E+08  1.946634E-03 -5.951767E+04 -1.631453E-03  1.647514E-05  1.169976E-11 -1.235156E-04  4.530427E-13 -1.385163E-05 -2.827851E-13 -1.070405E-04  0.000000E+00  0.000000E+00  0.000000E+00  0.000000E+00  0.000000E+00  0.000000E+00  0.000000E+00                                                                                                                                                                                                                                                                                                                                                                                                                                                                                              