Title="TREACTMECH V1.0-OMP-MPI stress-strain.tec: Total Stresses (Pa), Strains"                                                                                                                                                                                                                                                                                                                                                                                                                                                                                                                                                                                                                                                                                                                                                 
Variables= "X(m)"     "Y(m)"      "Z(m)"    "Sigma_xx"    "Sigma_yy"    "Sigma_zz"    "Sigma_yz"    "Sigma_xz"    "Sigma_xy"   "Strain_xx"   "Strain_yy"   "Strain_zz"   "Strain_yz"   "Strain_xz"   "Strain_xy"  "Vol_Strain"   "E_fail_xx"   "E_fail_yy"   "E_fail_zz"  "E_fail_yz2"  "E_fail_xz2"  "E_fail_xy2"  "E_fail_vol"                                                                                                                                                                                                                                                                                                                                                                                                                                                                                                
Zone T= "1.00000000E+06 sec" I=     9 J=    10 K=    23 F=Point
  1.250000E+02  1.250000E+02 -5.425000E+03 -9.290305E+07 -1.143912E+08 -1.268117E+08 -2.147744E-03  3.977803E+03  6.072649E-03  3.067315E-05  5.059448E-13 -1.067593E-04 -4.998474E-13  9.257593E-07  1.052592E-12 -7.608616E-05  0.000000E+00  0.000000E+00  0.000000E+00  0.000000E+00  0.000000E+00  0.000000E+00  0.000000E+00                                                                                                                                                                                                                                                                                                                                                                                                                                                                                              
  3.750000E+02  1.250000E+02 -5.425000E+03 -9.292938E+07 -1.140297E+08 -1.263287E+08 -9.972031E-03  1.219573E+04  8.811538E-03  7.719364E-06  1.311191E-12 -1.018709E-04 -2.320804E-12  2.838328E-06  1.527333E-12 -9.415154E-05  0.000000E+00  0.000000E+00  0.000000E+00  0.000000E+00  0.000000E+00  0.000000E+00  0.000000E+00                                                                                                                                                                                                                                                                                                                                                                                                                                                                                              
  6.250000E+02  1.250000E+02 -5.425000E+03 -9.297302E+07 -1.134439E+08 -1.255539E+08 -7.223145E-02  1.259959E+04 -2.270910E-02 -2.935583E-05  1.073961E-12 -9.474988E-05 -1.681052E-11  2.932320E-06 -3.936243E-12 -1.241057E-04  0.000000E+00  0.000000E+00  0.000000E+00  0.000000E+00  0.000000E+00  0.000000E+00  0.000000E+00                                                                                                                                                                                                                                                                                                                                                                                                                                                                                              
  7.600000E+02  1.250000E+02 -5.425000E+03 -9.300569E+07 -1.128220E+08 -1.247883E+08 -1.601551E-01  1.011297E+04 -2.194106E-02 -6.955310E-05  1.043605E-12 -9.104057E-05 -3.727310E-11  2.353604E-06 -3.803117E-12 -1.605937E-04  0.000000E+00  0.000000E+00  0.000000E+00  0.000000E+00  0.000000E+00  0.000000E+00  0.000000E+00                                                                                                                                                                                                                                                                                                                                                                                                                                                                                              
  7.800000E+02  1.250000E+02 -5.425000E+03 -9.301368E+07 -1.125521E+08 -1.244740E+08 -2.195139E-01 -6.267377E-02 -2.077011E-02 -8.681128E-05  2.207139E-12 -9.080121E-05 -5.108776E-11 -1.458615E-11 -3.600152E-12 -1.776125E-04  0.000000E+00  0.000000E+00  0.000000E+00  0.000000E+00  0.000000E+00  0.000000E+00  0.000000E+00                                                                                                                                                                                                                                                                                                                                                                                                                                                                                              
  8.000000E+02  1.250000E+02 -5.425000E+03 -9.300569E+07 -1.128220E+08 -1.247883E+08 -2.006875E-01 -1.011329E+04 -8.489477E-02 -6.955310E-05  2.650950E-12 -9.104057E-05 -4.670628E-11 -2.353678E-06 -1.471509E-11 -1.605937E-04  0.000000E+00  0.000000E+00  0.000000E+00  0.000000E+00  0.000000E+00  0.000000E+00  0.000000E+00                                                                                                                                                                                                                                                                                                                                                                                                                                                                                              
  9.350000E+02  1.250000E+02 -5.425000E+03 -9.297302E+07 -1.134439E+08 -1.255539E+08 -5.933483E-02 -1.259975E+04 -2.762867E-02 -2.935583E-05  2.398787E-12 -9.474988E-05 -1.380908E-11 -2.932358E-06 -4.788969E-12 -1.241057E-04  0.000000E+00  0.000000E+00  0.000000E+00  0.000000E+00  0.000000E+00  0.000000E+00  0.000000E+00                                                                                                                                                                                                                                                                                                                                                                                                                                                                                              
  1.185000E+03  1.250000E+02 -5.425000E+03 -9.292938E+07 -1.140297E+08 -1.263287E+08  1.067227E-02 -1.219574E+04  2.438533E-04  7.719385E-06  3.032459E-12 -1.018709E-04  2.483772E-12 -2.838332E-06  4.226791E-14 -9.415153E-05  0.000000E+00  0.000000E+00  0.000000E+00  0.000000E+00  0.000000E+00  0.000000E+00  0.000000E+00                                                                                                                                                                                                                                                                                                                                                                                                                                                                                              
  1.435000E+03  1.250000E+02 -5.425000E+03 -9.290305E+07 -1.143912E+08 -1.268117E+08 -5.981909E-03 -3.977819E+03 -7.819121E-03  3.067317E-05  3.279060E-12 -1.067593E-04 -1.392178E-12 -9.257630E-07 -1.355314E-12 -7.608614E-05  0.000000E+00  0.000000E+00  0.000000E+00  0.000000E+00  0.000000E+00  0.000000E+00  0.000000E+00                                                                                                                                                                                                                                                                                                                                                                                                                                                                                              
  1.250000E+02  1.250000E+02 -5.225000E+03 -9.000617E+07 -1.108613E+08 -1.228650E+08  4.657850E-03  1.166746E+04  1.911934E-03  3.134162E-05  7.402749E-13 -1.000345E-04  1.084028E-12  2.715385E-06  3.314019E-13 -6.869284E-05  0.000000E+00  0.000000E+00  0.000000E+00  0.000000E+00  0.000000E+00  0.000000E+00  0.000000E+00                                                                                                                                                                                                                                                                                                                                                                                                                                                                                              
  3.750000E+02  1.250000E+02 -5.225000E+03 -9.002096E+07 -1.104795E+08 -1.223815E+08  6.520000E-03  3.500152E+04 -4.501324E-03  8.481245E-06  2.467726E-12 -9.730785E-05  1.517408E-12  8.145951E-06 -7.802295E-13 -8.882660E-05  0.000000E+00  0.000000E+00  0.000000E+00  0.000000E+00  0.000000E+00  0.000000E+00  0.000000E+00                                                                                                                                                                                                                                                                                                                                                                                                                                                                                              
  6.250000E+02  1.250000E+02 -5.225000E+03 -9.004702E+07 -1.098343E+08 -1.215710E+08  5.455348E-02  3.293458E+04 -4.685600E-02 -3.009412E-05  5.755063E-12 -9.336463E-05  1.269630E-11  7.664908E-06 -8.121707E-12 -1.234587E-04  0.000000E+00  0.000000E+00  0.000000E+00  0.000000E+00  0.000000E+00  0.000000E+00  0.000000E+00                                                                                                                                                                                                                                                                                                                                                                                                                                                                                              
  7.600000E+02  1.250000E+02 -5.225000E+03 -9.005805E+07 -1.091124E+08 -1.207111E+08  1.069513E-01  1.286487E+04 -4.110790E-02 -7.440731E-05  8.638046E-12 -9.157641E-05  2.489091E-11  2.994058E-06 -7.125370E-12 -1.659837E-04  0.000000E+00  0.000000E+00  0.000000E+00  0.000000E+00  0.000000E+00  0.000000E+00  0.000000E+00                                                                                                                                                                                                                                                                                                                                                                                                                                                                                              
  7.800000E+02  1.250000E+02 -5.225000E+03 -9.006132E+07 -1.087915E+08 -1.203420E+08  1.180212E-01  1.540525E-01 -5.146305E-02 -9.440450E-05  1.016333E-11 -9.167697E-05  2.746722E-11  3.585284E-11 -8.920262E-12 -1.860815E-04  0.000000E+00  0.000000E+00  0.000000E+00  0.000000E+00  0.000000E+00  0.000000E+00  0.000000E+00                                                                                                                                                                                                                                                                                                                                                                                                                                                                                              
  8.000000E+02  1.250000E+02 -5.225000E+03 -9.005805E+07 -1.091124E+08 -1.207111E+08  9.855583E-02 -1.286484E+04 -1.699305E-01 -7.440730E-05  9.880749E-12 -9.157641E-05  2.293703E-11 -2.994051E-06 -2.945462E-11 -1.659837E-04  0.000000E+00  0.000000E+00  0.000000E+00  0.000000E+00  0.000000E+00  0.000000E+00  0.000000E+00                                                                                                                                                                                                                                                                                                                                                                                                                                                                                              
  9.350000E+02  1.250000E+02 -5.225000E+03 -9.004702E+07 -1.098343E+08 -1.215710E+08  3.008538E-02 -3.293464E+04 -7.652642E-02 -3.009411E-05  5.188057E-12 -9.336463E-05  7.001811E-12 -7.664923E-06 -1.326458E-11 -1.234587E-04  0.000000E+00  0.000000E+00  0.000000E+00  0.000000E+00  0.000000E+00  0.000000E+00  0.000000E+00                                                                                                                                                                                                                                                                                                                                                                                                                                                                                              
  1.185000E+03  1.250000E+02 -5.225000E+03 -9.002096E+07 -1.104795E+08 -1.223815E+08 -7.140381E-03 -3.500157E+04 -1.229241E-02  8.481268E-06  1.920241E-12 -9.730785E-05 -1.661790E-12 -8.145962E-06 -2.130684E-12 -8.882658E-05  0.000000E+00  0.000000E+00  0.000000E+00  0.000000E+00  0.000000E+00  0.000000E+00  0.000000E+00                                                                                                                                                                                                                                                                                                                                                                                                                                                                                              
  1.435000E+03  1.250000E+02 -5.225000E+03 -9.000617E+07 -1.108613E+08 -1.228650E+08  1.568137E-04 -1.166748E+04 -7.325498E-03  3.134164E-05  2.187649E-12 -1.000345E-04  3.649545E-14 -2.715389E-06 -1.269753E-12 -6.869283E-05  0.000000E+00  0.000000E+00  0.000000E+00  0.000000E+00  0.000000E+00  0.000000E+00  0.000000E+00                                                                                                                                                                                                                                                                                                                                                                                                                                                                                              
  1.250000E+02  1.250000E+02 -4.975000E+03 -8.636335E+07 -1.064308E+08 -1.179411E+08  9.673782E-03  1.913108E+04  1.488601E-04  3.307877E-05  5.981403E-13 -9.433396E-05  2.251392E-12  4.452403E-06  2.580242E-14 -6.125519E-05  0.000000E+00  0.000000E+00  0.000000E+00  0.000000E+00  0.000000E+00  0.000000E+00  0.000000E+00                                                                                                                                                                                                                                                                                                                                                                                                                                                                                              
  3.750000E+02  1.250000E+02 -4.975000E+03 -8.638033E+07 -1.060394E+08 -1.174560E+08  2.940501E-03  5.511378E+04  2.411563E-02  9.773944E-06  2.425345E-12 -9.260968E-05  6.843466E-13  1.282670E-05  4.180043E-12 -8.283574E-05  0.000000E+00  0.000000E+00  0.000000E+00  0.000000E+00  0.000000E+00  0.000000E+00  0.000000E+00                                                                                                                                                                                                                                                                                                                                                                                                                                                                                              
  6.250000E+02  1.250000E+02 -4.975000E+03 -8.639732E+07 -1.053253E+08 -1.165753E+08 -2.190307E-02  5.304160E+04  2.167755E-02 -3.171717E-05  5.124192E-12 -8.975151E-05 -5.097530E-12  1.234444E-05  3.757443E-12 -1.214687E-04  0.000000E+00  0.000000E+00  0.000000E+00  0.000000E+00  0.000000E+00  0.000000E+00  0.000000E+00                                                                                                                                                                                                                                                                                                                                                                                                                                                                                              
  7.600000E+02  1.250000E+02 -4.975000E+03 -8.643119E+07 -1.044877E+08 -1.155770E+08 -5.812825E-02  3.149563E+04 -8.932908E-03 -8.465933E-05  5.690072E-12 -8.777937E-05 -1.352827E-11  7.330021E-06 -1.548371E-12 -1.724387E-04  0.000000E+00  0.000000E+00  0.000000E+00  0.000000E+00  0.000000E+00  0.000000E+00  0.000000E+00                                                                                                                                                                                                                                                                                                                                                                                                                                                                                              
  7.800000E+02  1.250000E+02 -4.975000E+03 -8.643550E+07 -1.040974E+08 -1.151224E+08 -8.337609E-02 -1.200828E-01 -1.656706E-03 -1.090713E-04  5.365359E-12 -8.738570E-05 -1.940423E-11 -2.794702E-11 -2.871623E-13 -1.964570E-04  0.000000E+00  0.000000E+00  0.000000E+00  0.000000E+00  0.000000E+00  0.000000E+00  0.000000E+00                                                                                                                                                                                                                                                                                                                                                                                                                                                                                              
  8.000000E+02  1.250000E+02 -4.975000E+03 -8.643119E+07 -1.044877E+08 -1.155770E+08 -7.659519E-02 -3.149607E+04 -3.156699E-03 -8.465931E-05  5.188374E-12 -8.777938E-05 -1.782610E-11 -7.330123E-06 -5.471612E-13 -1.724387E-04  0.000000E+00  0.000000E+00  0.000000E+00  0.000000E+00  0.000000E+00  0.000000E+00  0.000000E+00                                                                                                                                                                                                                                                                                                                                                                                                                                                                                              
  9.350000E+02  1.250000E+02 -4.975000E+03 -8.639732E+07 -1.053253E+08 -1.165753E+08 -2.028266E-02 -5.304190E+04 -6.048656E-03 -3.171714E-05  3.784316E-12 -8.975153E-05 -4.720411E-12 -1.234451E-05 -1.048434E-12 -1.214687E-04  0.000000E+00  0.000000E+00  0.000000E+00  0.000000E+00  0.000000E+00  0.000000E+00  0.000000E+00                                                                                                                                                                                                                                                                                                                                                                                                                                                                                              
  1.185000E+03  1.250000E+02 -4.975000E+03 -8.638033E+07 -1.060394E+08 -1.174560E+08  1.136158E-02 -5.511390E+04 -1.989109E-03  9.773979E-06  2.066340E-12 -9.260970E-05  2.644196E-12 -1.282673E-05 -3.447788E-13 -8.283572E-05  0.000000E+00  0.000000E+00  0.000000E+00  0.000000E+00  0.000000E+00  0.000000E+00  0.000000E+00                                                                                                                                                                                                                                                                                                                                                                                                                                                                                              
  1.435000E+03  1.250000E+02 -4.975000E+03 -8.636335E+07 -1.064308E+08 -1.179411E+08  8.697991E-03 -1.913113E+04  1.125227E-05  3.307881E-05  1.626459E-12 -9.433397E-05  2.024295E-12 -4.452415E-06  1.950394E-15 -6.125516E-05  0.000000E+00  0.000000E+00  0.000000E+00  0.000000E+00  0.000000E+00  0.000000E+00  0.000000E+00                                                                                                                                                                                                                                                                                                                                                                                                                                                                                              
  1.250000E+02  1.250000E+02 -4.725000E+03 -8.275044E+07 -1.020332E+08 -1.130274E+08  1.722023E-02  1.701420E+04  2.297347E-04  3.510415E-05  6.753978E-13 -8.668211E-05  4.007686E-12  3.959737E-06  3.982068E-14 -5.157796E-05  0.000000E+00  0.000000E+00  0.000000E+00  0.000000E+00  0.000000E+00  0.000000E+00  0.000000E+00                                                                                                                                                                                                                                                                                                                                                                                                                                                                                              
  3.750000E+02  1.250000E+02 -4.725000E+03 -8.272494E+07 -1.016192E+08 -1.125391E+08  2.483956E-02  7.068042E+04  3.773267E-02  1.353247E-05  1.839639E-12 -8.663979E-05  5.780943E-12  1.644955E-05  6.540330E-12 -7.310732E-05  0.000000E+00  0.000000E+00  0.000000E+00  0.000000E+00  0.000000E+00  0.000000E+00  0.000000E+00                                                                                                                                                                                                                                                                                                                                                                                                                                                                                              
  6.250000E+02  1.250000E+02 -4.725000E+03 -8.278640E+07 -1.008295E+08 -1.115681E+08  6.269092E-02  7.625637E+04  8.900296E-02 -3.608080E-05  2.629813E-12 -8.372315E-05  1.459014E-11  1.774725E-05  1.542718E-11 -1.198039E-04  0.000000E+00  0.000000E+00  0.000000E+00  0.000000E+00  0.000000E+00  0.000000E+00  0.000000E+00                                                                                                                                                                                                                                                                                                                                                                                                                                                                                              
  7.600000E+02  1.250000E+02 -4.725000E+03 -8.272864E+07 -9.977806E+07 -1.103371E+08  9.915005E-02 -5.382270E+03  3.036236E-02 -9.513588E-05 -1.862939E-13 -8.248125E-05  2.307532E-11 -1.252623E-06  5.262809E-12 -1.776171E-04  0.000000E+00  0.000000E+00  0.000000E+00  0.000000E+00  0.000000E+00  0.000000E+00  0.000000E+00                                                                                                                                                                                                                                                                                                                                                                                                                                                                                              
  7.800000E+02  1.250000E+02 -4.725000E+03 -8.271301E+07 -9.929446E+07 -1.097916E+08  1.056301E-01  8.471137E-02  4.168058E-02 -1.236252E-04 -3.563165E-12 -8.350848E-05  2.458343E-11  1.971499E-11  7.224634E-12 -2.071337E-04  0.000000E+00  0.000000E+00  0.000000E+00  0.000000E+00  0.000000E+00  0.000000E+00  0.000000E+00                                                                                                                                                                                                                                                                                                                                                                                                                                                                                              
  8.000000E+02  1.250000E+02 -4.725000E+03 -8.272864E+07 -9.977806E+07 -1.103371E+08  9.445045E-02  5.381967E+03  2.774411E-01 -9.513585E-05 -3.490872E-12 -8.248124E-05  2.198158E-11  1.252552E-06  4.808980E-11 -1.776171E-04  0.000000E+00  0.000000E+00  0.000000E+00  0.000000E+00  0.000000E+00  0.000000E+00  0.000000E+00                                                                                                                                                                                                                                                                                                                                                                                                                                                                                              
  9.350000E+02  1.250000E+02 -4.725000E+03 -8.278640E+07 -1.008295E+08 -1.115681E+08  4.908369E-02 -7.625646E+04  9.094484E-02 -3.608076E-05  1.735756E-12 -8.372316E-05  1.142331E-11 -1.774727E-05  1.576377E-11 -1.198039E-04  0.000000E+00  0.000000E+00  0.000000E+00  0.000000E+00  0.000000E+00  0.000000E+00  0.000000E+00                                                                                                                                                                                                                                                                                                                                                                                                                                                                                              
  1.185000E+03  1.250000E+02 -4.725000E+03 -8.272493E+07 -1.016192E+08 -1.125391E+08  1.895525E-02 -7.068039E+04  2.347987E-03  1.353251E-05  3.684902E-12 -8.663981E-05  4.411480E-12 -1.644954E-05  4.069844E-13 -7.310729E-05  0.000000E+00  0.000000E+00  0.000000E+00  0.000000E+00  0.000000E+00  0.000000E+00  0.000000E+00                                                                                                                                                                                                                                                                                                                                                                                                                                                                                              