Title="TREACTMECH V1.0-OMP-MPI stress-strain.tec: Total Stresses (Pa), Strains"                                                                                                                                                                                                                                                                                                                                                                                                                                                                                                                                                                                                                                                                                                                                                 
Variables= "X(m)"     "Y(m)"      "Z(m)"    "Sigma_xx"    "Sigma_yy"    "Sigma_zz"    "Sigma_yz"    "Sigma_xz"    "Sigma_xy"   "Strain_xx"   "Strain_yy"   "Strain_zz"   "Strain_yz"   "Strain_xz"   "Strain_xy"  "Vol_Strain"   "E_fail_xx"   "E_fail_yy"   "E_fail_zz"  "E_fail_yz2"  "E_fail_xz2"  "E_fail_xy2"  "E_fail_vol"                                                                                                                                                                                                                                                                                                                                                                                                                                                                                                
Zone T= "1.00000000E+07 sec" I=     9 J=    10 K=    23 F=Point
  1.250000E+02  1.250000E+02 -5.425000E+03 -9.289239E+07 -1.144349E+08 -1.268677E+08 -8.971557E-04  5.342208E+03  6.458242E-04  3.538754E-05 -1.601962E-11 -1.078245E-04 -2.087962E-13  1.243299E-06  1.119429E-13 -7.243693E-05  0.000000E+00  0.000000E+00  0.000000E+00  0.000000E+00  0.000000E+00  0.000000E+00  0.000000E+00                                                                                                                                                                                                                                                                                                                                                                                                                                                                                              
  3.750000E+02  1.250000E+02 -5.425000E+03 -9.292733E+07 -1.140467E+08 -1.263474E+08 -1.357931E-03  1.578730E+04  2.307354E-03  9.371392E-06 -1.530937E-11 -1.020159E-04 -3.160332E-13  3.674201E-06  3.999413E-13 -9.264452E-05  0.000000E+00  0.000000E+00  0.000000E+00  0.000000E+00  0.000000E+00  0.000000E+00  0.000000E+00                                                                                                                                                                                                                                                                                                                                                                                                                                                                                              
  6.250000E+02  1.250000E+02 -5.425000E+03 -9.298342E+07 -1.133939E+08 -1.254926E+08 -1.769185E-03  1.517914E+04  1.109176E-03 -3.459026E-05 -1.421768E-11 -9.376256E-05 -4.117449E-13  3.532661E-06  1.922572E-13 -1.283528E-04  0.000000E+00  0.000000E+00  0.000000E+00  0.000000E+00  0.000000E+00  0.000000E+00  0.000000E+00                                                                                                                                                                                                                                                                                                                                                                                                                                                                                              
  7.600000E+02  1.250000E+02 -5.425000E+03 -9.302058E+07 -1.127288E+08 -1.246782E+08 -1.470993E-03  1.078394E+04 -5.811627E-04 -7.891861E-05 -1.368432E-11 -8.957239E-05 -3.423461E-13  2.509760E-06 -1.007349E-13 -1.684910E-04  0.000000E+00  0.000000E+00  0.000000E+00  0.000000E+00  0.000000E+00  0.000000E+00  0.000000E+00                                                                                                                                                                                                                                                                                                                                                                                                                                                                                              
  7.800000E+02  1.250000E+02 -5.425000E+03 -9.302862E+07 -1.124567E+08 -1.243615E+08 -1.039140E-03 -2.549285E-03 -3.161307E-03 -9.637958E-05 -1.369147E-11 -8.932034E-05 -2.418405E-13 -5.932986E-13 -5.479598E-13 -1.856999E-04  0.000000E+00  0.000000E+00  0.000000E+00  0.000000E+00  0.000000E+00  0.000000E+00  0.000000E+00                                                                                                                                                                                                                                                                                                                                                                                                                                                                                              
  8.000000E+02  1.250000E+02 -5.425000E+03 -9.302058E+07 -1.127288E+08 -1.246782E+08 -7.855139E-04 -1.078394E+04 -4.937205E-03 -7.891861E-05 -1.376818E-11 -8.957239E-05 -1.828137E-13 -2.509762E-06 -8.557822E-13 -1.684910E-04  0.000000E+00  0.000000E+00  0.000000E+00  0.000000E+00  0.000000E+00  0.000000E+00  0.000000E+00                                                                                                                                                                                                                                                                                                                                                                                                                                                                                              
  9.350000E+02  1.250000E+02 -5.425000E+03 -9.298342E+07 -1.133939E+08 -1.254926E+08 -6.533442E-04 -1.517914E+04 -2.208721E-03 -3.459026E-05 -1.422650E-11 -9.376256E-05 -1.520537E-13 -3.532662E-06 -3.828449E-13 -1.283528E-04  0.000000E+00  0.000000E+00  0.000000E+00  0.000000E+00  0.000000E+00  0.000000E+00  0.000000E+00                                                                                                                                                                                                                                                                                                                                                                                                                                                                                              
  1.185000E+03  1.250000E+02 -5.425000E+03 -9.292733E+07 -1.140467E+08 -1.263474E+08 -2.798437E-04 -1.578731E+04 -1.038807E-04  9.371396E-06 -1.478295E-11 -1.020159E-04 -6.512840E-14 -3.674201E-06 -1.800599E-14 -9.264451E-05  0.000000E+00  0.000000E+00  0.000000E+00  0.000000E+00  0.000000E+00  0.000000E+00  0.000000E+00                                                                                                                                                                                                                                                                                                                                                                                                                                                                                              
  1.435000E+03  1.250000E+02 -5.425000E+03 -9.289239E+07 -1.144349E+08 -1.268677E+08  4.678837E-04 -5.342209E+03 -3.994954E-04  3.538754E-05 -1.502441E-11 -1.078245E-04  1.088912E-13 -1.243299E-06 -6.924588E-14 -7.243693E-05  0.000000E+00  0.000000E+00  0.000000E+00  0.000000E+00  0.000000E+00  0.000000E+00  0.000000E+00                                                                                                                                                                                                                                                                                                                                                                                                                                                                                              
  1.250000E+02  1.250000E+02 -5.225000E+03 -9.000604E+07 -1.109213E+08 -1.229262E+08 -3.786399E-03  1.532611E+04  5.184183E-04  3.655707E-05 -1.571580E-11 -1.001346E-04 -8.812137E-13  3.566867E-06  8.985917E-14 -6.357750E-05  0.000000E+00  0.000000E+00  0.000000E+00  0.000000E+00  0.000000E+00  0.000000E+00  0.000000E+00                                                                                                                                                                                                                                                                                                                                                                                                                                                                                              
  3.750000E+02  1.250000E+02 -5.225000E+03 -9.002508E+07 -1.105054E+08 -1.224031E+08 -3.376407E-03  4.401128E+04  2.018522E-03  1.036738E-05 -1.499902E-11 -9.694034E-05 -7.857957E-13  1.024280E-05  3.498771E-13 -8.657297E-05  0.000000E+00  0.000000E+00  0.000000E+00  0.000000E+00  0.000000E+00  0.000000E+00  0.000000E+00                                                                                                                                                                                                                                                                                                                                                                                                                                                                                              
  6.250000E+02  1.250000E+02 -5.225000E+03 -9.005664E+07 -1.097765E+08 -1.215027E+08 -2.256068E-03  3.912735E+04  1.583418E-03 -3.593902E-05 -1.380498E-11 -9.245981E-05 -5.250576E-13  9.106161E-06  2.744591E-13 -1.283988E-04  0.000000E+00  0.000000E+00  0.000000E+00  0.000000E+00  0.000000E+00  0.000000E+00  0.000000E+00                                                                                                                                                                                                                                                                                                                                                                                                                                                                                              
  7.600000E+02  1.250000E+02 -5.225000E+03 -9.007004E+07 -1.090045E+08 -1.205904E+08 -1.553153E-03  1.397485E+04  1.692933E-03 -8.479795E-05 -1.314748E-11 -9.046542E-05 -3.614673E-13  3.252386E-06  2.934418E-13 -1.752634E-04  0.000000E+00  0.000000E+00  0.000000E+00  0.000000E+00  0.000000E+00  0.000000E+00  0.000000E+00                                                                                                                                                                                                                                                                                                                                                                                                                                                                                              
  7.800000E+02  1.250000E+02 -5.225000E+03 -9.007368E+07 -1.086812E+08 -1.202189E+08 -1.582298E-03 -1.500076E-03 -1.881164E-03 -1.050401E-04 -1.311113E-11 -9.057100E-05 -3.682503E-13 -3.491146E-13 -3.260684E-13 -1.956111E-04  0.000000E+00  0.000000E+00  0.000000E+00  0.000000E+00  0.000000E+00  0.000000E+00  0.000000E+00                                                                                                                                                                                                                                                                                                                                                                                                                                                                                              
  8.000000E+02  1.250000E+02 -5.225000E+03 -9.007004E+07 -1.090045E+08 -1.205904E+08 -1.676517E-03 -1.397486E+04 -5.006766E-03 -8.479795E-05 -1.317592E-11 -9.046542E-05 -3.901781E-13 -3.252387E-06 -8.678395E-13 -1.752634E-04  0.000000E+00  0.000000E+00  0.000000E+00  0.000000E+00  0.000000E+00  0.000000E+00  0.000000E+00                                                                                                                                                                                                                                                                                                                                                                                                                                                                                              
  9.350000E+02  1.250000E+02 -5.225000E+03 -9.005664E+07 -1.097765E+08 -1.215027E+08 -1.845569E-03 -3.912736E+04 -2.963877E-03 -3.593902E-05 -1.374206E-11 -9.245981E-05 -4.295217E-13 -9.106162E-06 -5.137387E-13 -1.283988E-04  0.000000E+00  0.000000E+00  0.000000E+00  0.000000E+00  0.000000E+00  0.000000E+00  0.000000E+00                                                                                                                                                                                                                                                                                                                                                                                                                                                                                              
  1.185000E+03  1.250000E+02 -5.225000E+03 -9.002508E+07 -1.105054E+08 -1.224031E+08 -1.675806E-03 -4.401128E+04  1.952320E-04  1.036739E-05 -1.438492E-11 -9.694034E-05 -3.900125E-13 -1.024280E-05  3.384022E-14 -8.657297E-05  0.000000E+00  0.000000E+00  0.000000E+00  0.000000E+00  0.000000E+00  0.000000E+00  0.000000E+00                                                                                                                                                                                                                                                                                                                                                                                                                                                                                              
  1.435000E+03  1.250000E+02 -5.225000E+03 -9.000604E+07 -1.109213E+08 -1.229262E+08 -1.037316E-03 -1.532612E+04  4.039100E-04  3.655708E-05 -1.454176E-11 -1.001346E-04 -2.414160E-13 -3.566868E-06  7.001106E-14 -6.357750E-05  0.000000E+00  0.000000E+00  0.000000E+00  0.000000E+00  0.000000E+00  0.000000E+00  0.000000E+00                                                                                                                                                                                                                                                                                                                                                                                                                                                                                              
  1.250000E+02  1.250000E+02 -4.975000E+03 -8.637559E+07 -1.065121E+08 -1.180115E+08 -7.727077E-03  2.303606E+04  7.240825E-05  3.907192E-05 -1.500154E-11 -9.338008E-05 -1.798333E-12  5.361213E-06  1.255076E-14 -5.430818E-05  0.000000E+00  0.000000E+00  0.000000E+00  0.000000E+00  0.000000E+00  0.000000E+00  0.000000E+00                                                                                                                                                                                                                                                                                                                                                                                                                                                                                              
  3.750000E+02  1.250000E+02 -4.975000E+03 -8.638869E+07 -1.060742E+08 -1.174819E+08 -7.376198E-03  6.503500E+04  2.211200E-03  1.206622E-05 -1.422125E-11 -9.184008E-05 -1.716672E-12  1.513568E-05  3.832746E-13 -7.977387E-05  0.000000E+00  0.000000E+00  0.000000E+00  0.000000E+00  0.000000E+00  0.000000E+00  0.000000E+00                                                                                                                                                                                                                                                                                                                                                                                                                                                                                              
  6.250000E+02  1.250000E+02 -4.975000E+03 -8.640239E+07 -1.052516E+08 -1.164960E+08 -5.963880E-03  5.966621E+04  2.525799E-03 -3.854822E-05 -1.276755E-11 -8.926548E-05 -1.387982E-12  1.388620E-05  4.378051E-13 -1.278137E-04  0.000000E+00  0.000000E+00  0.000000E+00  0.000000E+00  0.000000E+00  0.000000E+00  0.000000E+00                                                                                                                                                                                                                                                                                                                                                                                                                                                                                              
  7.600000E+02  1.250000E+02 -4.975000E+03 -8.643453E+07 -1.043522E+08 -1.154372E+08 -4.965495E-03  3.435827E+04  2.094324E-03 -9.669252E-05 -1.192866E-11 -8.741159E-05 -1.155626E-12  7.996246E-06  3.630161E-13 -1.841041E-04  0.000000E+00  0.000000E+00  0.000000E+00  0.000000E+00  0.000000E+00  0.000000E+00  0.000000E+00                                                                                                                                                                                                                                                                                                                                                                                                                                                                                              
  7.800000E+02  1.250000E+02 -4.975000E+03 -8.643805E+07 -1.039582E+08 -1.149785E+08 -4.918965E-03 -6.645969E-03 -1.769332E-03 -1.213629E-04 -1.188471E-11 -8.698044E-05 -1.144797E-12 -1.546725E-12 -3.066842E-13 -2.083433E-04  0.000000E+00  0.000000E+00  0.000000E+00  0.000000E+00  0.000000E+00  0.000000E+00  0.000000E+00                                                                                                                                                                                                                                                                                                                                                                                                                                                                                              
  8.000000E+02  1.250000E+02 -4.975000E+03 -8.643453E+07 -1.043522E+08 -1.154372E+08 -4.904881E-03 -3.435828E+04 -6.064351E-03 -9.669251E-05 -1.196482E-11 -8.741159E-05 -1.141519E-12 -7.996249E-06 -1.051154E-12 -1.841041E-04  0.000000E+00  0.000000E+00  0.000000E+00  0.000000E+00  0.000000E+00  0.000000E+00  0.000000E+00                                                                                                                                                                                                                                                                                                                                                                                                                                                                                              
  9.350000E+02  1.250000E+02 -4.975000E+03 -8.640239E+07 -1.052516E+08 -1.164960E+08 -4.164162E-03 -5.966622E+04 -3.657432E-03 -3.854822E-05 -1.266116E-11 -8.926548E-05 -9.691311E-13 -1.388620E-05 -6.339548E-13 -1.278137E-04  0.000000E+00  0.000000E+00  0.000000E+00  0.000000E+00  0.000000E+00  0.000000E+00  0.000000E+00                                                                                                                                                                                                                                                                                                                                                                                                                                                                                              
  1.185000E+03  1.250000E+02 -4.975000E+03 -8.638869E+07 -1.060742E+08 -1.174819E+08 -3.010055E-03 -6.503501E+04  1.004861E-04  1.206622E-05 -1.343707E-11 -9.184008E-05 -7.005341E-13 -1.513568E-05  1.741758E-14 -7.977387E-05  0.000000E+00  0.000000E+00  0.000000E+00  0.000000E+00  0.000000E+00  0.000000E+00  0.000000E+00                                                                                                                                                                                                                                                                                                                                                                                                                                                                                              
  1.435000E+03  1.250000E+02 -4.975000E+03 -8.637559E+07 -1.065121E+08 -1.180115E+08 -2.622590E-03 -2.303606E+04  5.944376E-04  3.907192E-05 -1.359815E-11 -9.338008E-05 -6.103588E-13 -5.361214E-06  1.030358E-13 -5.430818E-05  0.000000E+00  0.000000E+00  0.000000E+00  0.000000E+00  0.000000E+00  0.000000E+00  0.000000E+00                                                                                                                                                                                                                                                                                                                                                                                                                                                                                              
  1.250000E+02  1.250000E+02 -4.725000E+03 -8.277321E+07 -1.021244E+08 -1.131024E+08 -1.154001E-02  1.607507E+04 -1.781989E-04  4.103314E-05 -1.376842E-11 -8.527845E-05 -2.685722E-12  3.741173E-06 -3.088782E-14 -4.424532E-05  0.000000E+00  0.000000E+00  0.000000E+00  0.000000E+00  0.000000E+00  0.000000E+00  0.000000E+00                                                                                                                                                                                                                                                                                                                                                                                                                                                                                              
  3.750000E+02  1.250000E+02 -4.725000E+03 -8.273027E+07 -1.016512E+08 -1.125688E+08 -1.142079E-02  6.703199E+04  1.899165E-03  1.584290E-05 -1.309205E-11 -8.643773E-05 -2.657975E-12  1.560044E-05  3.291886E-13 -7.059485E-05  0.000000E+00  0.000000E+00  0.000000E+00  0.000000E+00  0.000000E+00  0.000000E+00  0.000000E+00                                                                                                                                                                                                                                                                                                                                                                                                                                                                                              
  6.250000E+02  1.250000E+02 -4.725000E+03 -8.275799E+07 -1.007213E+08 -1.114806E+08 -1.093140E-02  7.083026E+04  2.943569E-03 -4.299612E-05 -1.166551E-11 -8.551190E-05 -2.544080E-12  1.648442E-05  5.102187E-13 -1.285080E-04  0.000000E+00  0.000000E+00  0.000000E+00  0.000000E+00  0.000000E+00  0.000000E+00  0.000000E+00                                                                                                                                                                                                                                                                                                                                                                                                                                                                                              
  7.600000E+02  1.250000E+02 -4.725000E+03 -8.267807E+07 -9.960111E+07 -1.101950E+08 -1.039445E-02 -1.225343E+04  2.614220E-03 -1.060895E-04 -1.078388E-11 -8.549959E-05 -2.419114E-12 -2.851757E-06  4.531314E-13 -1.915891E-04  0.000000E+00  0.000000E+00  0.000000E+00  0.000000E+00  0.000000E+00  0.000000E+00  0.000000E+00                                                                                                                                                                                                                                                                                                                                                                                                                                                                                              
  7.800000E+02  1.250000E+02 -4.725000E+03 -8.266281E+07 -9.911510E+07 -1.096492E+08 -1.024022E-02 -8.221709E-03 -4.050853E-04 -1.348192E-04 -1.071990E-11 -8.671031E-05 -2.383219E-12 -1.913449E-12 -7.021478E-14 -2.215295E-04  0.000000E+00  0.000000E+00  0.000000E+00  0.000000E+00  0.000000E+00  0.000000E+00  0.000000E+00                                                                                                                                                                                                                                                                                                                                                                                                                                                                                              
  8.000000E+02  1.250000E+02 -4.725000E+03 -8.267807E+07 -9.960111E+07 -1.101950E+08 -9.957951E-03  1.225341E+04 -4.570183E-03 -1.060895E-04 -1.076802E-11 -8.549959E-05 -2.317527E-12  2.851753E-06 -7.921650E-13 -1.915891E-04  0.000000E+00  0.000000E+00  0.000000E+00  0.000000E+00  0.000000E+00  0.000000E+00  0.000000E+00                                                                                                                                                                                                                                                                                                                                                                                                                                                                                              
  9.350000E+02  1.250000E+02 -4.725000E+03 -8.275799E+07 -1.007213E+08 -1.114806E+08 -7.646123E-03 -7.083028E+04 -2.440440E-03 -4.299611E-05 -1.130219E-11 -8.551190E-05 -1.779493E-12 -1.648443E-05 -4.230096E-13 -1.285080E-04  0.000000E+00  0.000000E+00  0.000000E+00  0.000000E+00  0.000000E+00  0.000000E+00  0.000000E+00                                                                                                                                                                                                                                                                                                                                                                                                                                                                                              
  1.185000E+03  1.250000E+02 -4.725000E+03 -8.273027E+07 -1.016512E+08 -1.125688E+08 -4.112055E-03 -6.703199E+04  4.305712E-04  1.584290E-05 -1.187649E-11 -8.643773E-05 -9.570042E-13 -1.560044E-05  7.463233E-14 -7.059484E-05  0.000000E+00  0.000000E+00  0.000000E+00  0.000000E+00  0.000000E+00  0.000000E+00  0.000000E+00                                                                                                                                                                                                                                                                                                                                                                                                                                                                                              