Title="TREACTMECH V1.0-OMP-MPI stress-strain.tec: Total Stresses (Pa), Strains"                                                                                                                                                                                                                                                                                                                                                                                                                                                                                                                                                                                                                                                                                                                                                 
Variables= "X(m)"     "Y(m)"      "Z(m)"    "Sigma_xx"    "Sigma_yy"    "Sigma_zz"    "Sigma_yz"    "Sigma_xz"    "Sigma_xy"   "Strain_xx"   "Strain_yy"   "Strain_zz"   "Strain_yz"   "Strain_xz"   "Strain_xy"  "Vol_Strain"   "E_fail_xx"   "E_fail_yy"   "E_fail_zz"  "E_fail_yz2"  "E_fail_xz2"  "E_fail_xy2"  "E_fail_vol"                                                                                                                                                                                                                                                                                                                                                                                                                                                                                                
Zone T= "1.00000000E+11 sec" I=     9 J=    10 K=    23 F=Point
  1.250000E+02  1.250000E+02 -5.425000E+03 -9.280587E+07 -1.144076E+08 -1.269259E+08 -1.079072E-02  5.066800E+03 -1.046359E-02  4.052182E-05  7.439855E-12 -1.152259E-04 -2.511339E-12  1.179203E-06 -1.813688E-12 -7.470411E-05  0.000000E+00  0.000000E+00  0.000000E+00  0.000000E+00  0.000000E+00  0.000000E+00  0.000000E+00                                                                                                                                                                                                                                                                                                                                                                                                                                                                                              
  3.750000E+02  1.250000E+02 -5.425000E+03 -9.283931E+07 -1.139655E+08 -1.263542E+08 -1.422383E-02  1.526457E+04 -1.149856E-02  9.964387E-06  5.462215E-12 -1.096341E-04 -3.310332E-12  3.552543E-06 -1.993083E-12 -9.966972E-05  0.000000E+00  0.000000E+00  0.000000E+00  0.000000E+00  0.000000E+00  0.000000E+00  0.000000E+00                                                                                                                                                                                                                                                                                                                                                                                                                                                                                              
  6.250000E+02  1.250000E+02 -5.425000E+03 -9.289400E+07 -1.132459E+08 -1.254351E+08 -1.886514E-02  1.488882E+04 -1.700510E-02 -3.966481E-05  3.928163E-12 -1.016072E-04 -4.390510E-12  3.465094E-06 -2.947551E-12 -1.412720E-04  0.000000E+00  0.000000E+00  0.000000E+00  0.000000E+00  0.000000E+00  0.000000E+00  0.000000E+00                                                                                                                                                                                                                                                                                                                                                                                                                                                                                              
  7.600000E+02  1.250000E+02 -5.425000E+03 -9.293067E+07 -1.125762E+08 -1.246171E+08 -1.729679E-02  1.078342E+04 -1.189220E-02 -8.435096E-05  3.012567E-12 -9.749899E-05 -4.025505E-12  2.509639E-06 -2.061315E-12 -1.818499E-04  0.000000E+00  0.000000E+00  0.000000E+00  0.000000E+00  0.000000E+00  0.000000E+00  0.000000E+00                                                                                                                                                                                                                                                                                                                                                                                                                                                                                              
  7.800000E+02  1.250000E+02 -5.425000E+03 -9.293868E+07 -1.123038E+08 -1.243001E+08 -1.283025E-02 -1.256729E-01 -1.161324E-02 -1.018318E-04  3.012973E-12 -9.724641E-05 -2.986001E-12 -2.924802E-11 -2.012961E-12 -1.990782E-04  0.000000E+00  0.000000E+00  0.000000E+00  0.000000E+00  0.000000E+00  0.000000E+00  0.000000E+00                                                                                                                                                                                                                                                                                                                                                                                                                                                                                              
  8.000000E+02  1.250000E+02 -5.425000E+03 -9.293067E+07 -1.125762E+08 -1.246171E+08 -1.003314E-02 -1.078348E+04 -1.439984E-02 -8.435098E-05  2.938206E-12 -9.749900E-05 -2.335025E-12 -2.509655E-06 -2.495971E-12 -1.818500E-04  0.000000E+00  0.000000E+00  0.000000E+00  0.000000E+00  0.000000E+00  0.000000E+00  0.000000E+00                                                                                                                                                                                                                                                                                                                                                                                                                                                                                              
  9.350000E+02  1.250000E+02 -5.425000E+03 -9.289400E+07 -1.132459E+08 -1.254351E+08 -7.792177E-03 -1.488881E+04 -4.189929E-03 -3.966484E-05  3.267636E-12 -1.016072E-04 -1.813484E-12 -3.465093E-06 -7.262544E-13 -1.412720E-04  0.000000E+00  0.000000E+00  0.000000E+00  0.000000E+00  0.000000E+00  0.000000E+00  0.000000E+00                                                                                                                                                                                                                                                                                                                                                                                                                                                                                              
  1.185000E+03  1.250000E+02 -5.425000E+03 -9.283932E+07 -1.139655E+08 -1.263542E+08 -5.300243E-03 -1.526456E+04 -4.012858E-04  9.964361E-06  3.999436E-12 -1.096341E-04 -1.233533E-12 -3.552542E-06 -6.955621E-14 -9.966978E-05  0.000000E+00  0.000000E+00  0.000000E+00  0.000000E+00  0.000000E+00  0.000000E+00  0.000000E+00                                                                                                                                                                                                                                                                                                                                                                                                                                                                                              
  1.435000E+03  1.250000E+02 -5.425000E+03 -9.280587E+07 -1.144076E+08 -1.269259E+08 -6.284377E-03 -5.066798E+03  4.960466E-03  4.052179E-05  5.228955E-12 -1.152260E-04 -1.462571E-12 -1.179203E-06  8.598142E-13 -7.470418E-05  0.000000E+00  0.000000E+00  0.000000E+00  0.000000E+00  0.000000E+00  0.000000E+00  0.000000E+00                                                                                                                                                                                                                                                                                                                                                                                                                                                                                              
  1.250000E+02  1.250000E+02 -5.225000E+03 -8.992439E+07 -1.108971E+08 -1.229831E+08 -8.555759E-03  1.375411E+04 -7.020330E-03  4.152932E-05  7.150189E-12 -1.071701E-04 -1.991193E-12  3.201012E-06 -1.216857E-12 -6.564078E-05  0.000000E+00  0.000000E+00  0.000000E+00  0.000000E+00  0.000000E+00  0.000000E+00  0.000000E+00                                                                                                                                                                                                                                                                                                                                                                                                                                                                                              
  3.750000E+02  1.250000E+02 -5.225000E+03 -8.993924E+07 -1.104264E+08 -1.224099E+08 -1.276503E-02  4.083644E+04 -1.090625E-02  1.096528E-05  4.597358E-12 -1.043728E-04 -2.970823E-12  9.503920E-06 -1.890417E-12 -9.340747E-05  0.000000E+00  0.000000E+00  0.000000E+00  0.000000E+00  0.000000E+00  0.000000E+00  0.000000E+00                                                                                                                                                                                                                                                                                                                                                                                                                                                                                              
  6.250000E+02  1.250000E+02 -5.225000E+03 -8.996646E+07 -1.096293E+08 -1.214462E+08 -2.913692E-02  3.729656E+04 -9.407350E-03 -4.088035E-05  1.784845E-12 -1.003174E-04 -6.781075E-12  8.680079E-06 -1.630607E-12 -1.411977E-04  0.000000E+00  0.000000E+00  0.000000E+00  0.000000E+00  0.000000E+00  0.000000E+00  0.000000E+00                                                                                                                                                                                                                                                                                                                                                                                                                                                                                              
  7.600000E+02  1.250000E+02 -5.225000E+03 -8.997837E+07 -1.088524E+08 -1.205309E+08 -3.774281E-02  1.360549E+04  5.491127E-03 -9.002989E-05  6.613453E-13 -9.848495E-05 -8.783935E-12  3.166424E-06  9.517954E-13 -1.885148E-04  0.000000E+00  0.000000E+00  0.000000E+00  0.000000E+00  0.000000E+00  0.000000E+00  0.000000E+00                                                                                                                                                                                                                                                                                                                                                                                                                                                                                              
  7.800000E+02  1.250000E+02 -5.225000E+03 -8.998206E+07 -1.085289E+08 -1.201593E+08 -3.298752E-02 -1.747546E-01  4.270601E-03 -1.102950E-04  9.146011E-13 -9.859573E-05 -7.677229E-12 -4.067088E-11  7.402375E-13 -2.088907E-04  0.000000E+00  0.000000E+00  0.000000E+00  0.000000E+00  0.000000E+00  0.000000E+00  0.000000E+00                                                                                                                                                                                                                                                                                                                                                                                                                                                                                              
  8.000000E+02  1.250000E+02 -5.225000E+03 -8.997837E+07 -1.088524E+08 -1.205309E+08 -2.751685E-02 -1.360543E+04 -4.896206E-03 -9.002992E-05  1.033597E-12 -9.848495E-05 -6.404033E-12 -3.166409E-06 -8.486758E-13 -1.885149E-04  0.000000E+00  0.000000E+00  0.000000E+00  0.000000E+00  0.000000E+00  0.000000E+00  0.000000E+00                                                                                                                                                                                                                                                                                                                                                                                                                                                                                              
  9.350000E+02  1.250000E+02 -5.225000E+03 -8.996647E+07 -1.096293E+08 -1.214462E+08 -1.572793E-02 -3.729645E+04  2.214809E-03 -4.088039E-05  2.104467E-12 -1.003174E-04 -3.660382E-12 -8.680052E-06  3.839002E-13 -1.411978E-04  0.000000E+00  0.000000E+00  0.000000E+00  0.000000E+00  0.000000E+00  0.000000E+00  0.000000E+00                                                                                                                                                                                                                                                                                                                                                                                                                                                                                              
  1.185000E+03  1.250000E+02 -5.225000E+03 -8.993924E+07 -1.104264E+08 -1.224099E+08 -7.283294E-03 -4.083641E+04  1.196665E-03  1.096524E-05  3.770134E-12 -1.043728E-04 -1.695051E-12 -9.503911E-06  2.074219E-13 -9.340753E-05  0.000000E+00  0.000000E+00  0.000000E+00  0.000000E+00  0.000000E+00  0.000000E+00  0.000000E+00                                                                                                                                                                                                                                                                                                                                                                                                                                                                                              
  1.435000E+03  1.250000E+02 -5.225000E+03 -8.992439E+07 -1.108971E+08 -1.229831E+08 -9.093953E-03 -1.375410E+04  3.552761E-03  4.152928E-05  5.023071E-12 -1.071701E-04 -2.116448E-12 -3.201011E-06  6.158119E-13 -6.564084E-05  0.000000E+00  0.000000E+00  0.000000E+00  0.000000E+00  0.000000E+00  0.000000E+00  0.000000E+00                                                                                                                                                                                                                                                                                                                                                                                                                                                                                              
  1.250000E+02  1.250000E+02 -4.975000E+03 -8.630374E+07 -1.064899E+08 -1.180626E+08 -2.156183E-03  1.860969E+04 -3.505829E-03  4.336950E-05  9.088903E-12 -9.974413E-05 -5.018113E-13  4.331057E-06 -6.076771E-13 -5.637461E-05  0.000000E+00  0.000000E+00  0.000000E+00  0.000000E+00  0.000000E+00  0.000000E+00  0.000000E+00                                                                                                                                                                                                                                                                                                                                                                                                                                                                                              
  3.750000E+02  1.250000E+02 -4.975000E+03 -8.630931E+07 -1.060010E+08 -1.174885E+08 -8.488399E-03  5.555920E+04 -1.506079E-02  1.260637E-05  6.116215E-12 -9.875184E-05 -1.975516E-12  1.293037E-05 -2.610537E-12 -8.614546E-05  0.000000E+00  0.000000E+00  0.000000E+00  0.000000E+00  0.000000E+00  0.000000E+00  0.000000E+00                                                                                                                                                                                                                                                                                                                                                                                                                                                                                              
  6.250000E+02  1.250000E+02 -4.975000E+03 -8.631357E+07 -1.051133E+08 -1.164446E+08 -3.895879E-02  5.412555E+04 -1.374785E-02 -4.283621E-05  1.339428E-12 -9.679980E-05 -9.066932E-12  1.259671E-05 -2.382961E-12 -1.396360E-04  0.000000E+00  0.000000E+00  0.000000E+00  0.000000E+00  0.000000E+00  0.000000E+00  0.000000E+00                                                                                                                                                                                                                                                                                                                                                                                                                                                                                              
  7.600000E+02  1.250000E+02 -4.975000E+03 -8.634486E+07 -1.042097E+08 -1.153843E+08 -5.616571E-02  3.394150E+04  2.490906E-03 -1.012684E-04 -7.373107E-13 -9.517345E-05 -1.307152E-11  7.899251E-06  4.317570E-13 -1.964418E-04  0.000000E+00  0.000000E+00  0.000000E+00  0.000000E+00  0.000000E+00  0.000000E+00  0.000000E+00                                                                                                                                                                                                                                                                                                                                                                                                                                                                                              
  7.800000E+02  1.250000E+02 -4.975000E+03 -8.634816E+07 -1.038153E+08 -1.149251E+08 -4.698816E-02 -1.442388E-01  5.671778E-04 -1.259528E-04 -5.199427E-13 -9.473422E-05 -1.093562E-11 -3.356890E-11  9.831081E-14 -2.206870E-04  0.000000E+00  0.000000E+00  0.000000E+00  0.000000E+00  0.000000E+00  0.000000E+00  0.000000E+00                                                                                                                                                                                                                                                                                                                                                                                                                                                                                              
  8.000000E+02  1.250000E+02 -4.975000E+03 -8.634487E+07 -1.042097E+08 -1.153843E+08 -3.736096E-02 -3.394127E+04 -7.956553E-04 -1.012684E-04 -3.271364E-13 -9.517345E-05 -8.695067E-12 -7.899198E-06 -1.379136E-13 -1.964419E-04  0.000000E+00  0.000000E+00  0.000000E+00  0.000000E+00  0.000000E+00  0.000000E+00  0.000000E+00                                                                                                                                                                                                                                                                                                                                                                                                                                                                                              
  9.350000E+02  1.250000E+02 -4.975000E+03 -8.631357E+07 -1.051133E+08 -1.164446E+08 -1.819345E-02 -5.412540E+04  5.924923E-03 -4.283627E-05  1.884282E-12 -9.679979E-05 -4.234186E-12 -1.259668E-05  1.026987E-12 -1.396361E-04  0.000000E+00  0.000000E+00  0.000000E+00  0.000000E+00  0.000000E+00  0.000000E+00  0.000000E+00                                                                                                                                                                                                                                                                                                                                                                                                                                                                                              
  1.185000E+03  1.250000E+02 -4.975000E+03 -8.630931E+07 -1.060010E+08 -1.174885E+08 -5.276679E-03 -5.555920E+04  1.723150E-03  1.260632E-05  4.867344E-12 -9.875185E-05 -1.228048E-12 -1.293037E-05  2.986793E-13 -8.614553E-05  0.000000E+00  0.000000E+00  0.000000E+00  0.000000E+00  0.000000E+00  0.000000E+00  0.000000E+00                                                                                                                                                                                                                                                                                                                                                                                                                                                                                              
  1.435000E+03  1.250000E+02 -4.975000E+03 -8.630374E+07 -1.064899E+08 -1.180626E+08 -8.913690E-03 -1.860969E+04  2.488820E-03  4.336945E-05  6.218185E-12 -9.974415E-05 -2.074495E-12 -4.331058E-06  4.313955E-13 -5.637469E-05  0.000000E+00  0.000000E+00  0.000000E+00  0.000000E+00  0.000000E+00  0.000000E+00  0.000000E+00                                                                                                                                                                                                                                                                                                                                                                                                                                                                                              
  1.250000E+02  1.250000E+02 -4.725000E+03 -8.270163E+07 -1.020872E+08 -1.131409E+08  6.342499E-03  1.057244E+04 -9.973438E-04  4.401474E-05  1.198345E-11 -9.183662E-05  1.476098E-12  2.460537E-06 -1.728729E-13 -4.782187E-05  0.000000E+00  0.000000E+00  0.000000E+00  0.000000E+00  0.000000E+00  0.000000E+00  0.000000E+00                                                                                                                                                                                                                                                                                                                                                                                                                                                                                              
  3.750000E+02  1.250000E+02 -4.725000E+03 -8.266067E+07 -1.015861E+08 -1.125732E+08 -1.469697E-03  5.501936E+04 -1.918010E-02  1.623373E-05  8.796681E-12 -9.245961E-05 -3.420445E-13  1.280473E-05 -3.324550E-12 -7.622586E-05  0.000000E+00  0.000000E+00  0.000000E+00  0.000000E+00  0.000000E+00  0.000000E+00  0.000000E+00                                                                                                                                                                                                                                                                                                                                                                                                                                                                                              
  6.250000E+02  1.250000E+02 -4.725000E+03 -8.269115E+07 -1.006200E+08 -1.114429E+08 -4.017546E-02  6.340110E+04 -1.951383E-02 -4.598355E-05  2.461803E-12 -9.103044E-05 -9.350088E-12  1.475542E-05 -3.382397E-12 -1.370140E-04  0.000000E+00  0.000000E+00  0.000000E+00  0.000000E+00  0.000000E+00  0.000000E+00  0.000000E+00                                                                                                                                                                                                                                                                                                                                                                                                                                                                                              
  7.600000E+02  1.250000E+02 -4.725000E+03 -8.260914E+07 -9.949525E+07 -1.101515E+08 -6.430807E-02 -1.411506E+04 -1.066951E-02 -1.092899E-04 -5.240879E-13 -9.090404E-05 -1.496650E-11 -3.285016E-06 -1.849382E-12 -2.001940E-04  0.000000E+00  0.000000E+00  0.000000E+00  0.000000E+00  0.000000E+00  0.000000E+00  0.000000E+00                                                                                                                                                                                                                                                                                                                                                                                                                                                                                              
  7.800000E+02  1.250000E+02 -4.725000E+03 -8.259426E+07 -9.900939E+07 -1.096062E+08 -5.543393E-02 -2.361419E-01 -8.431236E-03 -1.380403E-04 -4.691124E-13 -9.214439E-05 -1.290121E-11 -5.495763E-11 -1.461414E-12 -2.301847E-04  0.000000E+00  0.000000E+00  0.000000E+00  0.000000E+00  0.000000E+00  0.000000E+00  0.000000E+00                                                                                                                                                                                                                                                                                                                                                                                                                                                                                              
  8.000000E+02  1.250000E+02 -4.725000E+03 -8.260914E+07 -9.949525E+07 -1.101515E+08 -4.537702E-02  1.411561E+04  1.472532E-03 -1.092900E-04 -2.071393E-13 -9.090403E-05 -1.056065E-11  3.285145E-06  2.552389E-13 -2.001940E-04  0.000000E+00  0.000000E+00  0.000000E+00  0.000000E+00  0.000000E+00  0.000000E+00  0.000000E+00                                                                                                                                                                                                                                                                                                                                                                                                                                                                                              
  9.350000E+02  1.250000E+02 -4.725000E+03 -8.269115E+07 -1.006200E+08 -1.114429E+08 -2.082603E-02 -6.340102E+04  7.319296E-03 -4.598364E-05  3.040437E-12 -9.103043E-05 -4.846870E-12 -1.475540E-05  1.268678E-12 -1.370141E-04  0.000000E+00  0.000000E+00  0.000000E+00  0.000000E+00  0.000000E+00  0.000000E+00  0.000000E+00                                                                                                                                                                                                                                                                                                                                                                                                                                                                                              
  1.185000E+03  1.250000E+02 -4.725000E+03 -8.266067E+07 -1.015861E+08 -1.125732E+08 -3.871202E-03 -5.501957E+04  1.195904E-03  1.623366E-05  6.939552E-12 -9.245961E-05 -9.009500E-13 -1.280478E-05  2.072901E-13 -7.622595E-05  0.000000E+00  0.000000E+00  0.000000E+00  0.000000E+00  0.000000E+00  0.000000E+00  0.000000E+00                                                                                                                                                                                                                                                                                                                                                                                                                                                                                              