Title="TREACTMECH V1.0-OMP-MPI displacement.tec: Nodal Displacements"                                                                                                                                                                                                                                                                                                                                                                                                                                                                                                                                                                                                                                                                                                                                                           
Variables= "X(m)"     "Y(m)"      "Z(m)"      "Disp_x"      "Disp_y"      "Disp_z"                                                                                                                                                                                                                                                                                                                                                                                                                                                                                                                                                                                                                                                                                                                                              
Zone T= "1.00000000E+07 sec" I=    10 J=    11 K=    24 F=Point
  0.000000E+00  0.000000E+00 -5.500000E+03  0.000000E+00  0.000000E+00  0.000000E+00                                                                                                                                                                                                                                                                                                                                                                                                                                                                                                                                                                                                                                                                                                                                            
  2.500000E+02  0.000000E+00 -5.500000E+03  1.130919E-02  0.000000E+00  0.000000E+00                                                                                                                                                                                                                                                                                                                                                                                                                                                                                                                                                                                                                                                                                                                                            
  5.000000E+02  0.000000E+00 -5.500000E+03  1.427374E-02  0.000000E+00  0.000000E+00                                                                                                                                                                                                                                                                                                                                                                                                                                                                                                                                                                                                                                                                                                                                            
  7.500000E+02  0.000000E+00 -5.500000E+03  3.231251E-03  0.000000E+00  0.000000E+00                                                                                                                                                                                                                                                                                                                                                                                                                                                                                                                                                                                                                                                                                                                                            
  7.700000E+02  0.000000E+00 -5.500000E+03  1.224638E-03  0.000000E+00  0.000000E+00                                                                                                                                                                                                                                                                                                                                                                                                                                                                                                                                                                                                                                                                                                                                            
  7.900000E+02  0.000000E+00 -5.500000E+03 -1.224218E-03  0.000000E+00  0.000000E+00                                                                                                                                                                                                                                                                                                                                                                                                                                                                                                                                                                                                                                                                                                                                            
  8.100000E+02  0.000000E+00 -5.500000E+03 -3.230833E-03  0.000000E+00  0.000000E+00                                                                                                                                                                                                                                                                                                                                                                                                                                                                                                                                                                                                                                                                                                                                            
  1.060000E+03  0.000000E+00 -5.500000E+03 -1.427339E-02  0.000000E+00  0.000000E+00                                                                                                                                                                                                                                                                                                                                                                                                                                                                                                                                                                                                                                                                                                                                            
  1.310000E+03  0.000000E+00 -5.500000E+03 -1.130900E-02  0.000000E+00  0.000000E+00                                                                                                                                                                                                                                                                                                                                                                                                                                                                                                                                                                                                                                                                                                                                            
  1.560000E+03  0.000000E+00 -5.500000E+03  0.000000E+00  0.000000E+00  0.000000E+00                                                                                                                                                                                                                                                                                                                                                                                                                                                                                                                                                                                                                                                                                                                                            
  0.000000E+00  2.500000E+02 -5.500000E+03  0.000000E+00  4.728256E-07  0.000000E+00                                                                                                                                                                                                                                                                                                                                                                                                                                                                                                                                                                                                                                                                                                                                            
  2.500000E+02  2.500000E+02 -5.500000E+03  1.130918E-02  4.567664E-07  0.000000E+00                                                                                                                                                                                                                                                                                                                                                                                                                                                                                                                                                                                                                                                                                                                                            
  5.000000E+02  2.500000E+02 -5.500000E+03  1.427374E-02  4.285748E-07  0.000000E+00                                                                                                                                                                                                                                                                                                                                                                                                                                                                                                                                                                                                                                                                                                                                            
  7.500000E+02  2.500000E+02 -5.500000E+03  3.231269E-03  4.465210E-07  0.000000E+00                                                                                                                                                                                                                                                                                                                                                                                                                                                                                                                                                                                                                                                                                                                                            
  7.700000E+02  2.500000E+02 -5.500000E+03  1.224656E-03  4.511086E-07  0.000000E+00                                                                                                                                                                                                                                                                                                                                                                                                                                                                                                                                                                                                                                                                                                                                            
  7.900000E+02  2.500000E+02 -5.500000E+03 -1.224199E-03  4.556187E-07  0.000000E+00                                                                                                                                                                                                                                                                                                                                                                                                                                                                                                                                                                                                                                                                                                                                            
  8.100000E+02  2.500000E+02 -5.500000E+03 -3.230812E-03  4.603061E-07  0.000000E+00                                                                                                                                                                                                                                                                                                                                                                                                                                                                                                                                                                                                                                                                                                                                            
  1.060000E+03  2.500000E+02 -5.500000E+03 -1.427336E-02  5.312122E-07  0.000000E+00                                                                                                                                                                                                                                                                                                                                                                                                                                                                                                                                                                                                                                                                                                                                            
  1.310000E+03  2.500000E+02 -5.500000E+03 -1.130898E-02  5.892086E-07  0.000000E+00                                                                                                                                                                                                                                                                                                                                                                                                                                                                                                                                                                                                                                                                                                                                            
  1.560000E+03  2.500000E+02 -5.500000E+03  0.000000E+00  6.104224E-07  0.000000E+00                                                                                                                                                                                                                                                                                                                                                                                                                                                                                                                                                                                                                                                                                                                                            
  0.000000E+00  5.000000E+02 -5.500000E+03  0.000000E+00  1.077370E-06  0.000000E+00                                                                                                                                                                                                                                                                                                                                                                                                                                                                                                                                                                                                                                                                                                                                            
  2.500000E+02  5.000000E+02 -5.500000E+03  1.130915E-02  1.036109E-06  0.000000E+00                                                                                                                                                                                                                                                                                                                                                                                                                                                                                                                                                                                                                                                                                                                                            
  5.000000E+02  5.000000E+02 -5.500000E+03  1.427373E-02  9.818422E-07  0.000000E+00                                                                                                                                                                                                                                                                                                                                                                                                                                                                                                                                                                                                                                                                                                                                            
  7.500000E+02  5.000000E+02 -5.500000E+03  3.231330E-03  1.016933E-06  0.000000E+00                                                                                                                                                                                                                                                                                                                                                                                                                                                                                                                                                                                                                                                                                                                                            
  7.700000E+02  5.000000E+02 -5.500000E+03  1.224723E-03  1.020503E-06  0.000000E+00                                                                                                                                                                                                                                                                                                                                                                                                                                                                                                                                                                                                                                                                                                                                            
  7.900000E+02  5.000000E+02 -5.500000E+03 -1.224127E-03  1.025646E-06  0.000000E+00                                                                                                                                                                                                                                                                                                                                                                                                                                                                                                                                                                                                                                                                                                                                            
  8.100000E+02  5.000000E+02 -5.500000E+03 -3.230736E-03  1.030930E-06  0.000000E+00                                                                                                                                                                                                                                                                                                                                                                                                                                                                                                                                                                                                                                                                                                                                            
  1.060000E+03  5.000000E+02 -5.500000E+03 -1.427327E-02  1.166300E-06  0.000000E+00                                                                                                                                                                                                                                                                                                                                                                                                                                                                                                                                                                                                                                                                                                                                            
  1.310000E+03  5.000000E+02 -5.500000E+03 -1.130892E-02  1.279034E-06  0.000000E+00                                                                                                                                                                                                                                                                                                                                                                                                                                                                                                                                                                                                                                                                                                                                            
  1.560000E+03  5.000000E+02 -5.500000E+03  0.000000E+00  1.318415E-06  0.000000E+00                                                                                                                                                                                                                                                                                                                                                                                                                                                                                                                                                                                                                                                                                                                                            
  0.000000E+00  7.500000E+02 -5.500000E+03  0.000000E+00  1.964172E-06  0.000000E+00                                                                                                                                                                                                                                                                                                                                                                                                                                                                                                                                                                                                                                                                                                                                            
  2.500000E+02  7.500000E+02 -5.500000E+03  1.130908E-02  1.911277E-06  0.000000E+00                                                                                                                                                                                                                                                                                                                                                                                                                                                                                                                                                                                                                                                                                                                                            
  5.000000E+02  7.500000E+02 -5.500000E+03  1.427370E-02  1.808441E-06  0.000000E+00                                                                                                                                                                                                                                                                                                                                                                                                                                                                                                                                                                                                                                                                                                                                            
  7.500000E+02  7.500000E+02 -5.500000E+03  3.231427E-03  1.831760E-06  0.000000E+00                                                                                                                                                                                                                                                                                                                                                                                                                                                                                                                                                                                                                                                                                                                                            
  7.700000E+02  7.500000E+02 -5.500000E+03  1.224826E-03  1.847618E-06  0.000000E+00                                                                                                                                                                                                                                                                                                                                                                                                                                                                                                                                                                                                                                                                                                                                            