Title="TREACTMECH V1.0-OMP-MPI stress-strain.tec: Total Stresses (Pa), Strains"                                                                                                                                                                                                                                                                                                                                                                                                                                                                                                                                                                                                                                                                                                                                                 
Variables= "X(m)"     "Y(m)"      "Z(m)"    "Sigma_xx"    "Sigma_yy"    "Sigma_zz"    "Sigma_yz"    "Sigma_xz"    "Sigma_xy"   "Strain_xx"   "Strain_yy"   "Strain_zz"   "Strain_yz"   "Strain_xz"   "Strain_xy"  "Vol_Strain"   "E_fail_xx"   "E_fail_yy"   "E_fail_zz"  "E_fail_yz2"  "E_fail_xz2"  "E_fail_xy2"  "E_fail_vol"                                                                                                                                                                                                                                                                                                                                                                                                                                                                                                
Zone T= "5.18400000E+05 sec" I=     9 J=    10 K=    23 F=Point
  1.250000E+02  1.250000E+02 -5.425000E+03 -1.249717E+08 -1.254234E+08 -1.266373E+08 -2.126916E-02  5.292464E+03 -4.876874E-03  3.914214E-05  1.343689E-10 -1.052102E-04 -4.949999E-12  1.231722E-06 -8.453249E-13 -6.606792E-05  0.000000E+00  0.000000E+00  0.000000E+00  0.000000E+00  0.000000E+00  0.000000E+00  0.000000E+00                                                                                                                                                                                                                                                                                                                                                                                                                                                                                              
  3.750000E+02  1.250000E+02 -5.425000E+03 -1.250056E+08 -1.251178E+08 -1.262849E+08 -3.150490E-02  1.463457E+04 -1.052728E-02  9.726585E-06  1.346300E-10 -1.011488E-04 -7.332178E-12  3.405922E-06 -1.824729E-12 -9.142208E-05  0.000000E+00  0.000000E+00  0.000000E+00  0.000000E+00  0.000000E+00  0.000000E+00  0.000000E+00                                                                                                                                                                                                                                                                                                                                                                                                                                                                                              
  6.250000E+02  1.250000E+02 -5.425000E+03 -1.250589E+08 -1.246259E+08 -1.257287E+08 -7.001169E-02  1.371903E+04 -2.631617E-02 -3.752860E-05  1.368975E-10 -9.557027E-05 -1.629391E-11  3.192849E-06 -4.561469E-12 -1.330987E-04  0.000000E+00  0.000000E+00  0.000000E+00  0.000000E+00  0.000000E+00  0.000000E+00  0.000000E+00                                                                                                                                                                                                                                                                                                                                                                                                                                                                                              
  7.600000E+02  1.250000E+02 -5.425000E+03 -1.250964E+08 -1.240947E+08 -1.251652E+08 -1.105356E-01  9.587365E+03 -1.374315E-02 -8.681265E-05  1.395803E-10 -9.277354E-05 -2.572509E-11  2.231280E-06 -2.382146E-12 -1.795860E-04  0.000000E+00  0.000000E+00  0.000000E+00  0.000000E+00  0.000000E+00  0.000000E+00  0.000000E+00                                                                                                                                                                                                                                                                                                                                                                                                                                                                                              
  7.800000E+02  1.250000E+02 -5.425000E+03 -1.251072E+08 -1.238394E+08 -1.249077E+08 -1.259944E-01 -5.403270E-02 -1.125495E-02 -1.098784E-04  1.410378E-10 -9.258706E-05 -2.932285E-11 -1.257510E-11 -1.950857E-12 -2.024653E-04  0.000000E+00  0.000000E+00  0.000000E+00  0.000000E+00  0.000000E+00  0.000000E+00  0.000000E+00                                                                                                                                                                                                                                                                                                                                                                                                                                                                                              
  8.000000E+02  1.250000E+02 -5.425000E+03 -1.250964E+08 -1.240947E+08 -1.251652E+08 -1.127433E-01 -9.587516E+03 -1.051219E-01 -8.681265E-05  1.411535E-10 -9.277354E-05 -2.623889E-11 -2.231315E-06 -1.822114E-11 -1.795860E-04  0.000000E+00  0.000000E+00  0.000000E+00  0.000000E+00  0.000000E+00  0.000000E+00  0.000000E+00                                                                                                                                                                                                                                                                                                                                                                                                                                                                                              
  9.350000E+02  1.250000E+02 -5.425000E+03 -1.250589E+08 -1.246259E+08 -1.257287E+08 -5.380838E-02 -1.371911E+04 -3.771974E-02 -3.752858E-05  1.370026E-10 -9.557028E-05 -1.252290E-11 -3.192867E-06 -6.538088E-12 -1.330987E-04  0.000000E+00  0.000000E+00  0.000000E+00  0.000000E+00  0.000000E+00  0.000000E+00  0.000000E+00                                                                                                                                                                                                                                                                                                                                                                                                                                                                                              
  1.185000E+03  1.250000E+02 -5.425000E+03 -1.250056E+08 -1.251178E+08 -1.262849E+08 -2.145946E-02 -1.463456E+04  6.373039E-03  9.726597E-06  1.332600E-10 -1.011488E-04 -4.994289E-12 -3.405921E-06  1.104660E-12 -9.142207E-05  0.000000E+00  0.000000E+00  0.000000E+00  0.000000E+00  0.000000E+00  0.000000E+00  0.000000E+00                                                                                                                                                                                                                                                                                                                                                                                                                                                                                              
  1.435000E+03  1.250000E+02 -5.425000E+03 -1.249717E+08 -1.254234E+08 -1.266373E+08 -2.316649E-02 -5.292453E+03 -1.912975E-03  3.914215E-05  1.325864E-10 -1.052102E-04 -5.391569E-12 -1.231720E-06 -3.315824E-13 -6.606790E-05  0.000000E+00  0.000000E+00  0.000000E+00  0.000000E+00  0.000000E+00  0.000000E+00  0.000000E+00                                                                                                                                                                                                                                                                                                                                                                                                                                                                                              
  1.250000E+02  1.250000E+02 -5.225000E+03 -1.210712E+08 -1.215418E+08 -1.226923E+08 -7.721251E-02  1.397544E+04 -5.241259E-03  4.078475E-05  1.225085E-10 -9.971448E-05 -1.796977E-11  3.252523E-06 -9.084849E-13 -5.892961E-05  0.000000E+00  0.000000E+00  0.000000E+00  0.000000E+00  0.000000E+00  0.000000E+00  0.000000E+00                                                                                                                                                                                                                                                                                                                                                                                                                                                                                              
  3.750000E+02  1.250000E+02 -5.225000E+03 -1.210857E+08 -1.212113E+08 -1.223342E+08 -8.739199E-02  3.771543E+04 -1.741141E-02  1.088129E-05  1.218795E-10 -9.732013E-05 -2.033886E-11  8.777562E-06 -3.017978E-12 -8.643873E-05  0.000000E+00  0.000000E+00  0.000000E+00  0.000000E+00  0.000000E+00  0.000000E+00  0.000000E+00                                                                                                                                                                                                                                                                                                                                                                                                                                                                                              
  6.250000E+02  1.250000E+02 -5.225000E+03 -1.211105E+08 -1.206572E+08 -1.217434E+08 -9.350745E-02  3.188521E+04 -1.418992E-02 -3.928828E-05  1.224637E-10 -9.414001E-05 -2.176211E-11  7.420687E-06 -2.459587E-12 -1.334282E-04  0.000000E+00  0.000000E+00  0.000000E+00  0.000000E+00  0.000000E+00  0.000000E+00  0.000000E+00                                                                                                                                                                                                                                                                                                                                                                                                                                                                                              
  7.600000E+02  1.250000E+02 -5.225000E+03 -1.211199E+08 -1.200326E+08 -1.211037E+08 -8.940039E-02  1.000303E+04  1.271751E-02 -9.423019E-05  1.238927E-10 -9.282668E-05 -2.080627E-11  2.328018E-06  2.204368E-12 -1.870567E-04  0.000000E+00  0.000000E+00  0.000000E+00  0.000000E+00  0.000000E+00  0.000000E+00  0.000000E+00                                                                                                                                                                                                                                                                                                                                                                                                                                                                                              
  7.800000E+02  1.250000E+02 -5.225000E+03 -1.211231E+08 -1.197271E+08 -1.207995E+08 -8.623513E-02  1.189786E-01  1.171880E-02 -1.209840E-04  1.246814E-10 -9.294279E-05 -2.006962E-11  2.769006E-11  2.031258E-12 -2.139266E-04  0.000000E+00  0.000000E+00  0.000000E+00  0.000000E+00  0.000000E+00  0.000000E+00  0.000000E+00                                                                                                                                                                                                                                                                                                                                                                                                                                                                                              
  8.000000E+02  1.250000E+02 -5.225000E+03 -1.211199E+08 -1.200326E+08 -1.211037E+08 -8.906749E-02 -1.000291E+04 -1.807234E-02 -9.423018E-05  1.249537E-10 -9.282667E-05 -2.072880E-11 -2.327991E-06 -3.132538E-12 -1.870567E-04  0.000000E+00  0.000000E+00  0.000000E+00  0.000000E+00  0.000000E+00  0.000000E+00  0.000000E+00                                                                                                                                                                                                                                                                                                                                                                                                                                                                                              
  9.350000E+02  1.250000E+02 -5.225000E+03 -1.211105E+08 -1.206572E+08 -1.217434E+08 -8.915581E-02 -3.188512E+04 -1.535859E-02 -3.928827E-05  1.226325E-10 -9.414000E-05 -2.074935E-11 -7.420666E-06 -2.662156E-12 -1.334281E-04  0.000000E+00  0.000000E+00  0.000000E+00  0.000000E+00  0.000000E+00  0.000000E+00  0.000000E+00                                                                                                                                                                                                                                                                                                                                                                                                                                                                                              
  1.185000E+03  1.250000E+02 -5.225000E+03 -1.210857E+08 -1.212113E+08 -1.223342E+08 -8.235288E-02 -3.771535E+04  3.228490E-03  1.088130E-05  1.201301E-10 -9.732013E-05 -1.916610E-11 -8.777543E-06  5.596049E-13 -8.643871E-05  0.000000E+00  0.000000E+00  0.000000E+00  0.000000E+00  0.000000E+00  0.000000E+00  0.000000E+00                                                                                                                                                                                                                                                                                                                                                                                                                                                                                              
  1.435000E+03  1.250000E+02 -5.225000E+03 -1.210712E+08 -1.215418E+08 -1.226923E+08 -7.754731E-02 -1.397540E+04  3.014504E-03  4.078476E-05  1.198861E-10 -9.971448E-05 -1.804769E-11 -3.252514E-06  5.225139E-13 -5.892959E-05  0.000000E+00  0.000000E+00  0.000000E+00  0.000000E+00  0.000000E+00  0.000000E+00  0.000000E+00                                                                                                                                                                                                                                                                                                                                                                                                                                                                                              
  1.250000E+02  1.250000E+02 -4.975000E+03 -1.161642E+08 -1.166720E+08 -1.177724E+08 -1.483769E-01  2.244333E+04 -2.604943E-03  4.400670E-05  9.256950E-11 -9.536628E-05 -3.453195E-11  5.223266E-06 -4.515234E-13 -5.135949E-05  0.000000E+00  0.000000E+00  0.000000E+00  0.000000E+00  0.000000E+00  0.000000E+00  0.000000E+00                                                                                                                                                                                                                                                                                                                                                                                                                                                                                              
  3.750000E+02  1.250000E+02 -4.975000E+03 -1.161828E+08 -1.163289E+08 -1.174031E+08 -1.578314E-01  5.755840E+04 -3.682907E-02  1.266040E-05  9.135606E-11 -9.309263E-05 -3.673230E-11  1.339564E-05 -6.383706E-12 -8.043213E-05  0.000000E+00  0.000000E+00  0.000000E+00  0.000000E+00  0.000000E+00  0.000000E+00  0.000000E+00                                                                                                                                                                                                                                                                                                                                                                                                                                                                                              
  6.250000E+02  1.250000E+02 -4.975000E+03 -1.161969E+08 -1.157078E+08 -1.167471E+08 -1.719113E-01  4.938413E+04 -4.999609E-02 -4.238189E-05  9.146743E-11 -9.006587E-05 -4.000914E-11  1.149323E-05 -8.665989E-12 -1.324477E-04  0.000000E+00  0.000000E+00  0.000000E+00  0.000000E+00  0.000000E+00  0.000000E+00  0.000000E+00                                                                                                                                                                                                                                                                                                                                                                                                                                                                                              
  7.600000E+02  1.250000E+02 -4.975000E+03 -1.162315E+08 -1.149841E+08 -1.160019E+08 -1.789525E-01  2.855028E+04  6.769184E-03 -1.081094E-04  9.392497E-11 -8.821120E-05 -4.164785E-11  6.644545E-06  1.173325E-12 -1.963205E-04  0.000000E+00  0.000000E+00  0.000000E+00  0.000000E+00  0.000000E+00  0.000000E+00  0.000000E+00                                                                                                                                                                                                                                                                                                                                                                                                                                                                                              
  7.800000E+02  1.250000E+02 -4.975000E+03 -1.162398E+08 -1.146139E+08 -1.156271E+08 -1.824173E-01  1.078205E-01 -1.309431E-02 -1.409118E-04  9.569648E-11 -8.780898E-05 -4.245422E-11  2.509321E-11 -2.269681E-12 -2.287206E-04  0.000000E+00  0.000000E+00  0.000000E+00  0.000000E+00  0.000000E+00  0.000000E+00  0.000000E+00                                                                                                                                                                                                                                                                                                                                                                                                                                                                                              
  8.000000E+02  1.250000E+02 -4.975000E+03 -1.162315E+08 -1.149841E+08 -1.160019E+08 -1.824497E-01 -2.855017E+04 -1.228155E-01 -1.081094E-04  9.557370E-11 -8.821120E-05 -4.246176E-11 -6.644520E-06 -2.128801E-11 -1.963205E-04  0.000000E+00  0.000000E+00  0.000000E+00  0.000000E+00  0.000000E+00  0.000000E+00  0.000000E+00                                                                                                                                                                                                                                                                                                                                                                                                                                                                                              
  9.350000E+02  1.250000E+02 -4.975000E+03 -1.161969E+08 -1.157078E+08 -1.167471E+08 -1.617094E-01 -4.938404E+04 -3.200824E-02 -4.238188E-05  9.217051E-11 -9.006587E-05 -3.763485E-11 -1.149321E-05 -5.548096E-12 -1.324477E-04  0.000000E+00  0.000000E+00  0.000000E+00  0.000000E+00  0.000000E+00  0.000000E+00  0.000000E+00                                                                                                                                                                                                                                                                                                                                                                                                                                                                                              
  1.185000E+03  1.250000E+02 -4.975000E+03 -1.161828E+08 -1.163289E+08 -1.174031E+08 -1.318820E-01 -5.755832E+04  1.970785E-02  1.266041E-05  9.106525E-11 -9.309262E-05 -3.069308E-11 -1.339562E-05  3.416028E-12 -8.043212E-05  0.000000E+00  0.000000E+00  0.000000E+00  0.000000E+00  0.000000E+00  0.000000E+00  0.000000E+00                                                                                                                                                                                                                                                                                                                                                                                                                                                                                              
  1.435000E+03  1.250000E+02 -4.975000E+03 -1.161642E+08 -1.166720E+08 -1.177724E+08 -1.178390E-01 -2.244330E+04  4.488429E-03  4.400670E-05  9.282156E-11 -9.536627E-05 -2.742483E-11 -5.223260E-06  7.779943E-13 -5.135948E-05  0.000000E+00  0.000000E+00  0.000000E+00  0.000000E+00  0.000000E+00  0.000000E+00  0.000000E+00                                                                                                                                                                                                                                                                                                                                                                                                                                                                                              
  1.250000E+02  1.250000E+02 -4.725000E+03 -1.113075E+08 -1.118486E+08 -1.128669E+08 -1.942884E-01  1.945394E+04 -3.850495E-03  4.689320E-05  4.752484E-11 -8.825511E-05 -4.521700E-11  4.527543E-06 -6.674191E-13 -4.136186E-05  0.000000E+00  0.000000E+00  0.000000E+00  0.000000E+00  0.000000E+00  0.000000E+00  0.000000E+00                                                                                                                                                                                                                                                                                                                                                                                                                                                                                              
  3.750000E+02  1.250000E+02 -4.725000E+03 -1.112730E+08 -1.114741E+08 -1.124762E+08 -2.046719E-01  7.665288E+04 -2.996533E-02  1.743079E-05  4.550231E-11 -8.684471E-05 -4.763357E-11  1.783953E-05 -5.193991E-12 -6.941388E-05  0.000000E+00  0.000000E+00  0.000000E+00  0.000000E+00  0.000000E+00  0.000000E+00  0.000000E+00                                                                                                                                                                                                                                                                                                                                                                                                                                                                                              
  6.250000E+02  1.250000E+02 -4.725000E+03 -1.113467E+08 -1.107928E+08 -1.117417E+08 -2.070398E-01  7.438220E+04 -1.057959E-02 -4.800025E-05  4.400999E-11 -8.223325E-05 -4.818464E-11  1.731107E-05 -1.833796E-12 -1.302335E-04  0.000000E+00  0.000000E+00  0.000000E+00  0.000000E+00  0.000000E+00  0.000000E+00  0.000000E+00                                                                                                                                                                                                                                                                                                                                                                                                                                                                                              
  7.600000E+02  1.250000E+02 -4.725000E+03 -1.112974E+08 -1.098741E+08 -1.108037E+08 -2.045088E-01 -1.126426E+04  4.650054E-02 -1.233533E-04  4.498509E-11 -8.056064E-05 -4.759561E-11 -2.621546E-06  8.060094E-12 -2.039139E-04  0.000000E+00  0.000000E+00  0.000000E+00  0.000000E+00  0.000000E+00  0.000000E+00  0.000000E+00                                                                                                                                                                                                                                                                                                                                                                                                                                                                                              
  7.800000E+02  1.250000E+02 -4.725000E+03 -1.112704E+08 -1.094082E+08 -1.103504E+08 -2.043664E-01  1.434828E-01  3.973074E-02 -1.613867E-04  4.607293E-11 -8.165718E-05 -4.756246E-11  3.339294E-11  6.886662E-12 -2.430438E-04  0.000000E+00  0.000000E+00  0.000000E+00  0.000000E+00  0.000000E+00  0.000000E+00  0.000000E+00                                                                                                                                                                                                                                                                                                                                                                                                                                                                                              
  8.000000E+02  1.250000E+02 -4.725000E+03 -1.112974E+08 -1.098741E+08 -1.108037E+08 -2.029046E-01  1.126441E+04 -5.946467E-03 -1.233533E-04  4.646825E-11 -8.056064E-05 -4.722226E-11  2.621582E-06 -1.030721E-12 -2.039139E-04  0.000000E+00  0.000000E+00  0.000000E+00  0.000000E+00  0.000000E+00  0.000000E+00  0.000000E+00                                                                                                                                                                                                                                                                                                                                                                                                                                                                                              
  9.350000E+02  1.250000E+02 -4.725000E+03 -1.113467E+08 -1.107928E+08 -1.117417E+08 -1.864932E-01 -7.438206E+04  2.946116E-02 -4.800025E-05  4.792504E-11 -8.223326E-05 -4.340280E-11 -1.731104E-05  5.106602E-12 -1.302335E-04  0.000000E+00  0.000000E+00  0.000000E+00  0.000000E+00  0.000000E+00  0.000000E+00  0.000000E+00                                                                                                                                                                                                                                                                                                                                                                                                                                                                                              
  1.185000E+03  1.250000E+02 -4.725000E+03 -1.112730E+08 -1.114741E+08 -1.124762E+08 -1.599740E-01 -7.665275E+04  4.920650E-02  1.743078E-05  5.281151E-11 -8.684472E-05 -3.723097E-11 -1.783950E-05  8.529126E-12 -6.941388E-05  0.000000E+00  0.000000E+00  0.000000E+00  0.000000E+00  0.000000E+00  0.000000E+00  0.000000E+00                                                                                                                                                                                                                                                                                                                                                                                                                                                                                              