Title="TREACTMECH V1.0-OMP-MPI stress-strain.tec: Total Stresses (Pa), Strains"                                                                                                                                                                                                                                                                                                                                                                                                                                                                                                                                                                                                                                                                                                                                                 
Variables= "X(m)"     "Y(m)"      "Z(m)"    "Sigma_xx"    "Sigma_yy"    "Sigma_zz"    "Sigma_yz"    "Sigma_xz"    "Sigma_xy"   "Strain_xx"   "Strain_yy"   "Strain_zz"   "Strain_yz"   "Strain_xz"   "Strain_xy"  "Vol_Strain"   "E_fail_xx"   "E_fail_yy"   "E_fail_zz"  "E_fail_yz2"  "E_fail_xz2"  "E_fail_xy2"  "E_fail_vol"                                                                                                                                                                                                                                                                                                                                                                                                                                                                                                
Zone T= "1.00000000E+06 sec" I=     9 J=    10 K=    23 F=Point
  1.250000E+02  1.250000E+02 -5.425000E+03 -1.249731E+08 -1.254283E+08 -1.266410E+08 -3.790035E-02  5.395064E+03 -7.867930E-03  3.944662E-05  2.626973E-10 -1.050981E-04 -8.820598E-12  1.255600E-06 -1.363775E-12 -6.565123E-05  0.000000E+00  0.000000E+00  0.000000E+00  0.000000E+00  0.000000E+00  0.000000E+00  0.000000E+00                                                                                                                                                                                                                                                                                                                                                                                                                                                                                              
  3.750000E+02  1.250000E+02 -5.425000E+03 -1.250077E+08 -1.251227E+08 -1.262876E+08 -4.012612E-02  1.500244E+04 -1.031878E-02  9.967132E-06  2.622028E-10 -1.009573E-04 -9.338606E-12  3.491538E-06 -1.788589E-12 -9.098989E-05  0.000000E+00  0.000000E+00  0.000000E+00  0.000000E+00  0.000000E+00  0.000000E+00  0.000000E+00                                                                                                                                                                                                                                                                                                                                                                                                                                                                                              
  6.250000E+02  1.250000E+02 -5.425000E+03 -1.250627E+08 -1.246288E+08 -1.257277E+08 -4.071906E-02  1.421105E+04  3.191484E-03 -3.760517E-05  2.638392E-10 -9.523708E-05 -9.476602E-12  3.307356E-06  5.531905E-13 -1.328420E-04  0.000000E+00  0.000000E+00  0.000000E+00  0.000000E+00  0.000000E+00  0.000000E+00  0.000000E+00                                                                                                                                                                                                                                                                                                                                                                                                                                                                                              
  7.600000E+02  1.250000E+02 -5.425000E+03 -1.251020E+08 -1.240561E+08 -1.251217E+08 -4.218026E-02  1.005897E+04  1.466079E-02 -9.064630E-05  2.655998E-10 -9.235156E-05 -9.816667E-12  2.341039E-06  2.541203E-12 -1.829976E-04  0.000000E+00  0.000000E+00  0.000000E+00  0.000000E+00  0.000000E+00  0.000000E+00  0.000000E+00                                                                                                                                                                                                                                                                                                                                                                                                                                                                                              
  7.800000E+02  1.250000E+02 -5.425000E+03 -1.251129E+08 -1.237984E+08 -1.248618E+08 -4.505080E-02  3.329261E-02  1.374968E-02 -1.139229E-04  2.658954E-10 -9.215608E-05 -1.048473E-11  7.748233E-12  2.383277E-12 -2.060787E-04  0.000000E+00  0.000000E+00  0.000000E+00  0.000000E+00  0.000000E+00  0.000000E+00  0.000000E+00                                                                                                                                                                                                                                                                                                                                                                                                                                                                                              
  8.000000E+02  1.250000E+02 -5.425000E+03 -1.251020E+08 -1.240561E+08 -1.251217E+08 -4.575787E-02 -1.005896E+04 -2.583902E-03 -9.064629E-05  2.658507E-10 -9.235156E-05 -1.064929E-11 -2.341036E-06 -4.478763E-13 -1.829976E-04  0.000000E+00  0.000000E+00  0.000000E+00  0.000000E+00  0.000000E+00  0.000000E+00  0.000000E+00                                                                                                                                                                                                                                                                                                                                                                                                                                                                                              
  9.350000E+02  1.250000E+02 -5.425000E+03 -1.250627E+08 -1.246288E+08 -1.257277E+08 -4.352542E-02 -1.421104E+04  4.028085E-03 -3.760514E-05  2.636817E-10 -9.523708E-05 -1.012973E-11 -3.307355E-06  6.982014E-13 -1.328420E-04  0.000000E+00  0.000000E+00  0.000000E+00  0.000000E+00  0.000000E+00  0.000000E+00  0.000000E+00                                                                                                                                                                                                                                                                                                                                                                                                                                                                                              
  1.185000E+03  1.250000E+02 -5.425000E+03 -1.250077E+08 -1.251227E+08 -1.262876E+08 -4.153441E-02 -1.500242E+04  1.403996E-02  9.967149E-06  2.613656E-10 -1.009573E-04 -9.666360E-12 -3.491533E-06  2.433593E-12 -9.098987E-05  0.000000E+00  0.000000E+00  0.000000E+00  0.000000E+00  0.000000E+00  0.000000E+00  0.000000E+00                                                                                                                                                                                                                                                                                                                                                                                                                                                                                              
  1.435000E+03  1.250000E+02 -5.425000E+03 -1.249731E+08 -1.254283E+08 -1.266410E+08 -3.858814E-02 -5.395052E+03  4.944130E-03  3.944664E-05  2.609269E-10 -1.050981E-04 -8.980670E-12 -1.255598E-06  8.569826E-13 -6.565120E-05  0.000000E+00  0.000000E+00  0.000000E+00  0.000000E+00  0.000000E+00  0.000000E+00  0.000000E+00                                                                                                                                                                                                                                                                                                                                                                                                                                                                                              
  1.250000E+02  1.250000E+02 -5.225000E+03 -1.210742E+08 -1.215490E+08 -1.226964E+08 -1.404248E-01  1.434251E+04 -8.180227E-03  4.114633E-05  2.387583E-10 -9.944399E-05 -3.268126E-11  3.337952E-06 -1.417906E-12 -5.829742E-05  0.000000E+00  0.000000E+00  0.000000E+00  0.000000E+00  0.000000E+00  0.000000E+00  0.000000E+00                                                                                                                                                                                                                                                                                                                                                                                                                                                                                              
  3.750000E+02  1.250000E+02 -5.225000E+03 -1.210894E+08 -1.212181E+08 -1.223374E+08 -1.468846E-01  3.863544E+04 -1.614051E-02  1.115338E-05  2.375669E-10 -9.701115E-05 -3.418465E-11  8.991677E-06 -2.797689E-12 -8.585753E-05  0.000000E+00  0.000000E+00  0.000000E+00  0.000000E+00  0.000000E+00  0.000000E+00  0.000000E+00                                                                                                                                                                                                                                                                                                                                                                                                                                                                                              
  6.250000E+02  1.250000E+02 -5.225000E+03 -1.211145E+08 -1.206600E+08 -1.217422E+08 -1.534730E-01  3.285071E+04  1.037380E-03 -3.939130E-05  2.382742E-10 -9.378970E-05 -3.571797E-11  7.645390E-06  1.798126E-13 -1.331808E-04  0.000000E+00  0.000000E+00  0.000000E+00  0.000000E+00  0.000000E+00  0.000000E+00  0.000000E+00                                                                                                                                                                                                                                                                                                                                                                                                                                                                                              
  7.600000E+02  1.250000E+02 -5.225000E+03 -1.211247E+08 -1.199874E+08 -1.210543E+08 -1.535512E-01  1.051130E+04  2.700500E-02 -9.857361E-05  2.398145E-10 -9.246424E-05 -3.573617E-11  2.446308E-06  4.680867E-12 -1.910376E-04  0.000000E+00  0.000000E+00  0.000000E+00  0.000000E+00  0.000000E+00  0.000000E+00  0.000000E+00                                                                                                                                                                                                                                                                                                                                                                                                                                                                                              
  7.800000E+02  1.250000E+02 -5.225000E+03 -1.211280E+08 -1.196792E+08 -1.207475E+08 -1.526157E-01  9.975631E-02  1.834804E-02 -1.255637E-04  2.402321E-10 -9.258635E-05 -3.551845E-11  2.321642E-11  3.180327E-12 -2.181498E-04  0.000000E+00  0.000000E+00  0.000000E+00  0.000000E+00  0.000000E+00  0.000000E+00  0.000000E+00                                                                                                                                                                                                                                                                                                                                                                                                                                                                                              
  8.000000E+02  1.250000E+02 -5.225000E+03 -1.211247E+08 -1.199874E+08 -1.210543E+08 -1.533515E-01 -1.051122E+04  2.385284E-04 -9.857359E-05  2.401909E-10 -9.246424E-05 -3.568970E-11 -2.446291E-06  4.134492E-14 -1.910376E-04  0.000000E+00  0.000000E+00  0.000000E+00  0.000000E+00  0.000000E+00  0.000000E+00  0.000000E+00                                                                                                                                                                                                                                                                                                                                                                                                                                                                                              
  9.350000E+02  1.250000E+02 -5.225000E+03 -1.211145E+08 -1.206600E+08 -1.217422E+08 -1.494685E-01 -3.285064E+04  9.371741E-03 -3.939128E-05  2.385903E-10 -9.378970E-05 -3.478601E-11 -7.645372E-06  1.624435E-12 -1.331807E-04  0.000000E+00  0.000000E+00  0.000000E+00  0.000000E+00  0.000000E+00  0.000000E+00  0.000000E+00                                                                                                                                                                                                                                                                                                                                                                                                                                                                                              
  1.185000E+03  1.250000E+02 -5.225000E+03 -1.210894E+08 -1.212181E+08 -1.223374E+08 -1.386872E-01 -3.863535E+04  2.025472E-02  1.115340E-05  2.375028E-10 -9.701114E-05 -3.227687E-11 -8.991657E-06  3.510818E-12 -8.585751E-05  0.000000E+00  0.000000E+00  0.000000E+00  0.000000E+00  0.000000E+00  0.000000E+00  0.000000E+00                                                                                                                                                                                                                                                                                                                                                                                                                                                                                              
  1.435000E+03  1.250000E+02 -5.225000E+03 -1.210742E+08 -1.215490E+08 -1.226964E+08 -1.301182E-01 -1.434248E+04  9.333563E-03  4.114634E-05  2.381308E-10 -9.944398E-05 -3.028259E-11 -3.337944E-06  1.617818E-12 -5.829740E-05  0.000000E+00  0.000000E+00  0.000000E+00  0.000000E+00  0.000000E+00  0.000000E+00  0.000000E+00                                                                                                                                                                                                                                                                                                                                                                                                                                                                                              
  1.250000E+02  1.250000E+02 -4.975000E+03 -1.161677E+08 -1.166813E+08 -1.177776E+08 -2.531758E-01  2.307740E+04 -8.336627E-03  4.451477E-05  1.817989E-10 -9.500935E-05 -5.892194E-11  5.370834E-06 -1.445015E-12 -5.049440E-05  0.000000E+00  0.000000E+00  0.000000E+00  0.000000E+00  0.000000E+00  0.000000E+00  0.000000E+00                                                                                                                                                                                                                                                                                                                                                                                                                                                                                              
  3.750000E+02  1.250000E+02 -4.975000E+03 -1.161868E+08 -1.163373E+08 -1.174067E+08 -2.589173E-01  5.959503E+04 -2.428506E-02  1.305049E-05  1.797456E-10 -9.267823E-05 -6.025817E-11  1.386963E-05 -4.209410E-12 -7.962756E-05  0.000000E+00  0.000000E+00  0.000000E+00  0.000000E+00  0.000000E+00  0.000000E+00  0.000000E+00                                                                                                                                                                                                                                                                                                                                                                                                                                                                                              
  6.250000E+02  1.250000E+02 -4.975000E+03 -1.162039E+08 -1.157121E+08 -1.167456E+08 -2.611555E-01  5.125205E+04 -5.034087E-04 -4.262182E-05  1.789969E-10 -8.957100E-05 -6.077907E-11  1.192796E-05 -8.725751E-14 -1.321926E-04  0.000000E+00  0.000000E+00  0.000000E+00  0.000000E+00  0.000000E+00  0.000000E+00  0.000000E+00                                                                                                                                                                                                                                                                                                                                                                                                                                                                                              
  7.600000E+02  1.250000E+02 -4.975000E+03 -1.162401E+08 -1.149306E+08 -1.159421E+08 -2.629646E-01  3.036590E+04  2.924595E-02 -1.134938E-04  1.797297E-10 -8.766892E-05 -6.120009E-11  7.067097E-06  5.069299E-12 -2.011625E-04  0.000000E+00  0.000000E+00  0.000000E+00  0.000000E+00  0.000000E+00  0.000000E+00  0.000000E+00                                                                                                                                                                                                                                                                                                                                                                                                                                                                                              
  7.800000E+02  1.250000E+02 -4.975000E+03 -1.162486E+08 -1.145571E+08 -1.155637E+08 -2.681033E-01  1.387763E-01  3.637029E-02 -1.465991E-04  1.800544E-10 -8.724078E-05 -6.239603E-11  3.229758E-11  6.304183E-12 -2.338397E-04  0.000000E+00  0.000000E+00  0.000000E+00  0.000000E+00  0.000000E+00  0.000000E+00  0.000000E+00                                                                                                                                                                                                                                                                                                                                                                                                                                                                                              
  8.000000E+02  1.250000E+02 -4.975000E+03 -1.162401E+08 -1.149306E+08 -1.159421E+08 -2.694168E-01 -3.036578E+04  3.002744E-02 -1.134937E-04  1.803020E-10 -8.766892E-05 -6.270172E-11 -7.067067E-06  5.204756E-12 -2.011625E-04  0.000000E+00  0.000000E+00  0.000000E+00  0.000000E+00  0.000000E+00  0.000000E+00  0.000000E+00                                                                                                                                                                                                                                                                                                                                                                                                                                                                                              
  9.350000E+02  1.250000E+02 -4.975000E+03 -1.162039E+08 -1.157121E+08 -1.167456E+08 -2.553196E-01 -5.125191E+04  3.594901E-02 -4.262180E-05  1.813697E-10 -8.957099E-05 -5.942086E-11 -1.192793E-05  6.231162E-12 -1.321926E-04  0.000000E+00  0.000000E+00  0.000000E+00  0.000000E+00  0.000000E+00  0.000000E+00  0.000000E+00                                                                                                                                                                                                                                                                                                                                                                                                                                                                                              
  1.185000E+03  1.250000E+02 -4.975000E+03 -1.161868E+08 -1.163373E+08 -1.174067E+08 -2.268531E-01 -5.959491E+04  4.290076E-02  1.305050E-05  1.847920E-10 -9.267822E-05 -5.279582E-11 -1.386960E-05  7.436132E-12 -7.962754E-05  0.000000E+00  0.000000E+00  0.000000E+00  0.000000E+00  0.000000E+00  0.000000E+00  0.000000E+00                                                                                                                                                                                                                                                                                                                                                                                                                                                                                              
  1.435000E+03  1.250000E+02 -4.975000E+03 -1.161677E+08 -1.166813E+08 -1.177776E+08 -2.063111E-01 -2.307737E+04  1.829017E-02  4.451478E-05  1.882980E-10 -9.500934E-05 -4.801505E-11 -5.370826E-06  3.170296E-12 -5.049438E-05  0.000000E+00  0.000000E+00  0.000000E+00  0.000000E+00  0.000000E+00  0.000000E+00  0.000000E+00                                                                                                                                                                                                                                                                                                                                                                                                                                                                                              
  1.250000E+02  1.250000E+02 -4.725000E+03 -1.113498E+08 -1.118978E+08 -1.128732E+08 -3.051062E-01  1.922554E+04 -1.556307E-02  4.748846E-05  1.027916E-10 -8.453849E-05 -7.100777E-11  4.474386E-06 -2.697599E-12 -3.704993E-05  0.000000E+00  0.000000E+00  0.000000E+00  0.000000E+00  0.000000E+00  0.000000E+00  0.000000E+00                                                                                                                                                                                                                                                                                                                                                                                                                                                                                              
  3.750000E+02  1.250000E+02 -4.725000E+03 -1.113114E+08 -1.115175E+08 -1.124822E+08 -3.176500E-01  7.564631E+04 -3.516648E-02  1.785933E-05  9.952443E-11 -8.361100E-05 -7.392711E-11  1.760527E-05 -6.095524E-12 -6.575157E-05  0.000000E+00  0.000000E+00  0.000000E+00  0.000000E+00  0.000000E+00  0.000000E+00  0.000000E+00                                                                                                                                                                                                                                                                                                                                                                                                                                                                                              
  6.250000E+02  1.250000E+02 -4.725000E+03 -1.113723E+08 -1.108141E+08 -1.117376E+08 -3.149952E-01  7.164587E+04  8.144033E-03 -4.837833E-05  9.912139E-11 -8.003462E-05 -7.330927E-11  1.667424E-05  1.411632E-12 -1.284128E-04  0.000000E+00  0.000000E+00  0.000000E+00  0.000000E+00  0.000000E+00  0.000000E+00  0.000000E+00                                                                                                                                                                                                                                                                                                                                                                                                                                                                                              
  7.600000E+02  1.250000E+02 -4.725000E+03 -1.113074E+08 -1.098229E+08 -1.107355E+08 -3.032251E-01 -1.387769E+04  3.627471E-02 -1.286630E-04  1.007597E-10 -7.909437E-05 -7.056998E-11 -3.229774E-06  6.287617E-12 -2.077573E-04  0.000000E+00  0.000000E+00  0.000000E+00  0.000000E+00  0.000000E+00  0.000000E+00  0.000000E+00                                                                                                                                                                                                                                                                                                                                                                                                                                                                                              
  7.800000E+02  1.250000E+02 -4.725000E+03 -1.112786E+08 -1.093528E+08 -1.102791E+08 -3.013936E-01  1.818592E-01  6.554807E-02 -1.669103E-04  1.011648E-10 -8.027959E-05 -7.014375E-11  4.232434E-11  1.136167E-11 -2.471898E-04  0.000000E+00  0.000000E+00  0.000000E+00  0.000000E+00  0.000000E+00  0.000000E+00  0.000000E+00                                                                                                                                                                                                                                                                                                                                                                                                                                                                                              
  8.000000E+02  1.250000E+02 -4.725000E+03 -1.113074E+08 -1.098229E+08 -1.107355E+08 -3.012815E-01  1.387783E+04  7.191165E-02 -1.286630E-04  1.019446E-10 -7.909437E-05 -7.011764E-11  3.229805E-06  1.246469E-11 -2.077573E-04  0.000000E+00  0.000000E+00  0.000000E+00  0.000000E+00  0.000000E+00  0.000000E+00  0.000000E+00                                                                                                                                                                                                                                                                                                                                                                                                                                                                                              
  9.350000E+02  1.250000E+02 -4.725000E+03 -1.113723E+08 -1.108141E+08 -1.117376E+08 -2.878392E-01 -7.164573E+04  7.514255E-02 -4.837832E-05  1.069201E-10 -8.003462E-05 -6.698920E-11 -1.667421E-05  1.302471E-11 -1.284128E-04  0.000000E+00  0.000000E+00  0.000000E+00  0.000000E+00  0.000000E+00  0.000000E+00  0.000000E+00                                                                                                                                                                                                                                                                                                                                                                                                                                                                                              
  1.185000E+03  1.250000E+02 -4.725000E+03 -1.113114E+08 -1.115175E+08 -1.124822E+08 -2.595196E-01 -7.564616E+04  7.777619E-02  1.785932E-05  1.165465E-10 -8.361102E-05 -6.039835E-11 -1.760523E-05  1.348121E-11 -6.575158E-05  0.000000E+00  0.000000E+00  0.000000E+00  0.000000E+00  0.000000E+00  0.000000E+00  0.000000E+00                                                                                                                                                                                                                                                                                                                                                                                                                                                                                              