Title="TREACTMECH V1.0-OMP-MPI stress-strain.tec: Total Stresses (Pa), Strains"                                                                                                                                                                                                                                                                                                                                                                                                                                                                                                                                                                                                                                                                                                                                                 
Variables= "X(m)"     "Y(m)"      "Z(m)"    "Sigma_xx"    "Sigma_yy"    "Sigma_zz"    "Sigma_yz"    "Sigma_xz"    "Sigma_xy"   "Strain_xx"   "Strain_yy"   "Strain_zz"   "Strain_yz"   "Strain_xz"   "Strain_xy"  "Vol_Strain"   "E_fail_xx"   "E_fail_yy"   "E_fail_zz"  "E_fail_yz2"  "E_fail_xz2"  "E_fail_xy2"  "E_fail_vol"                                                                                                                                                                                                                                                                                                                                                                                                                                                                                                
Zone T= "5.00000000E-02 sec" I=     9 J=    10 K=    23 F=Point
  1.250000E+02  1.250000E+02 -5.425000E+03 -1.245095E+08 -1.251222E+08 -1.267997E+08  1.983864E-03  6.514923E+03  1.293990E-02  5.310607E-05  4.752084E-11 -1.453776E-04  4.617072E-13  1.516227E-06  2.242916E-12 -9.227143E-05  0.000000E+00  0.000000E+00  0.000000E+00  0.000000E+00  0.000000E+00  0.000000E+00  0.000000E+00                                                                                                                                                                                                                                                                                                                                                                                                                                                                                              
  3.750000E+02  1.250000E+02 -5.425000E+03 -1.245515E+08 -1.247025E+08 -1.263231E+08 -4.133940E-03  1.830070E+04  3.322960E-02  1.308545E-05  5.849075E-11 -1.404557E-04 -9.620974E-13  4.259147E-06  5.759798E-12 -1.273701E-04  0.000000E+00  0.000000E+00  0.000000E+00  0.000000E+00  0.000000E+00  0.000000E+00  0.000000E+00                                                                                                                                                                                                                                                                                                                                                                                                                                                                                              
  6.250000E+02  1.250000E+02 -5.425000E+03 -1.246185E+08 -1.240195E+08 -1.255621E+08 -4.125938E-02  1.678263E+04  3.308633E-02 -5.191263E-05  7.954552E-11 -1.336945E-04 -9.602350E-12  3.905843E-06  5.734964E-12 -1.856071E-04  0.000000E+00  0.000000E+00  0.000000E+00  0.000000E+00  0.000000E+00  0.000000E+00  0.000000E+00                                                                                                                                                                                                                                                                                                                                                                                                                                                                                              
  7.600000E+02  1.250000E+02 -5.425000E+03 -1.246628E+08 -1.233805E+08 -1.248842E+08 -8.916237E-02  1.118843E+04  4.275255E-02 -1.111331E-04  9.427008E-11 -1.303269E-04 -2.075088E-11  2.603898E-06  7.410442E-12 -2.414599E-04  0.000000E+00  0.000000E+00  0.000000E+00  0.000000E+00  0.000000E+00  0.000000E+00  0.000000E+00                                                                                                                                                                                                                                                                                                                                                                                                                                                                                              
  7.800000E+02  1.250000E+02 -5.425000E+03 -1.246733E+08 -1.231190E+08 -1.246202E+08 -1.166292E-01 -9.439916E-02  1.800785E-02 -1.347056E-04  9.728806E-11 -1.301051E-04 -2.714328E-11 -2.196964E-11  3.121360E-12 -2.648106E-04  0.000000E+00  0.000000E+00  0.000000E+00  0.000000E+00  0.000000E+00  0.000000E+00  0.000000E+00                                                                                                                                                                                                                                                                                                                                                                                                                                                                                              
  8.000000E+02  1.250000E+02 -5.425000E+03 -1.246628E+08 -1.233805E+08 -1.248842E+08 -1.061619E-01 -1.118864E+04 -1.444149E-01 -1.111331E-04  9.781386E-11 -1.303269E-04 -2.470721E-11 -2.603947E-06 -2.503191E-11 -2.414599E-04  0.000000E+00  0.000000E+00  0.000000E+00  0.000000E+00  0.000000E+00  0.000000E+00  0.000000E+00                                                                                                                                                                                                                                                                                                                                                                                                                                                                                              
  9.350000E+02  1.250000E+02 -5.425000E+03 -1.246185E+08 -1.240195E+08 -1.255621E+08 -3.241839E-02 -1.678271E+04 -1.134807E-01 -5.191265E-05  8.603776E-11 -1.336945E-04 -7.544776E-12 -3.905864E-06 -1.966999E-11 -1.856071E-04  0.000000E+00  0.000000E+00  0.000000E+00  0.000000E+00  0.000000E+00  0.000000E+00  0.000000E+00                                                                                                                                                                                                                                                                                                                                                                                                                                                                                              
  1.185000E+03  1.250000E+02 -5.425000E+03 -1.245515E+08 -1.247025E+08 -1.263231E+08  9.819408E-03 -1.830070E+04 -5.481119E-02  1.308544E-05  6.924526E-11 -1.404557E-04  2.285284E-12 -4.259147E-06 -9.500605E-12 -1.273701E-04  0.000000E+00  0.000000E+00  0.000000E+00  0.000000E+00  0.000000E+00  0.000000E+00  0.000000E+00                                                                                                                                                                                                                                                                                                                                                                                                                                                                                              
  1.435000E+03  1.250000E+02 -5.425000E+03 -1.245095E+08 -1.251222E+08 -1.267997E+08  4.235780E-03 -6.514926E+03 -2.210443E-02  5.310606E-05  6.102738E-11 -1.453776E-04  9.857987E-13 -1.516227E-06 -3.831435E-12 -9.227143E-05  0.000000E+00  0.000000E+00  0.000000E+00  0.000000E+00  0.000000E+00  0.000000E+00  0.000000E+00                                                                                                                                                                                                                                                                                                                                                                                                                                                                                              
  1.250000E+02  1.250000E+02 -5.225000E+03 -1.206331E+08 -1.212694E+08 -1.228592E+08 -3.133074E-03  1.655024E+04  1.011716E-02  5.514596E-05  4.439855E-11 -1.377831E-04 -7.291645E-13  3.851759E-06  1.753642E-12 -8.263707E-05  0.000000E+00  0.000000E+00  0.000000E+00  0.000000E+00  0.000000E+00  0.000000E+00  0.000000E+00                                                                                                                                                                                                                                                                                                                                                                                                                                                                                              
  3.750000E+02  1.250000E+02 -5.225000E+03 -1.206485E+08 -1.208167E+08 -1.223766E+08 -9.289437E-03  4.536489E+04  1.931957E-02  1.457186E-05  5.431369E-11 -1.351925E-04 -2.161943E-12  1.055783E-05  3.348725E-12 -1.206206E-04  0.000000E+00  0.000000E+00  0.000000E+00  0.000000E+00  0.000000E+00  0.000000E+00  0.000000E+00                                                                                                                                                                                                                                                                                                                                                                                                                                                                                              
  6.250000E+02  1.250000E+02 -5.225000E+03 -1.206763E+08 -1.200506E+08 -1.215701E+08 -8.020623E-03  3.824790E+04  1.595737E-02 -5.422495E-05  7.319876E-11 -1.316880E-04 -1.866650E-12  8.901484E-06  2.765944E-12 -1.859129E-04  0.000000E+00  0.000000E+00  0.000000E+00  0.000000E+00  0.000000E+00  0.000000E+00  0.000000E+00                                                                                                                                                                                                                                                                                                                                                                                                                                                                                              
  7.600000E+02  1.250000E+02 -5.225000E+03 -1.206872E+08 -1.193028E+08 -1.208057E+08  1.226329E-03  1.056038E+04  1.917448E-02 -1.199757E-04  8.619542E-11 -1.302528E-04  2.854051E-13  2.457732E-06  3.323576E-12 -2.502285E-04  0.000000E+00  0.000000E+00  0.000000E+00  0.000000E+00  0.000000E+00  0.000000E+00  0.000000E+00                                                                                                                                                                                                                                                                                                                                                                                                                                                                                              
  7.800000E+02  1.250000E+02 -5.225000E+03 -1.206921E+08 -1.189916E+08 -1.204964E+08  5.817424E-03  6.403968E-02 -5.927004E-03 -1.473697E-04  8.842892E-11 -1.304149E-04  1.353897E-12  1.490404E-11 -1.027347E-12 -2.777845E-04  0.000000E+00  0.000000E+00  0.000000E+00  0.000000E+00  0.000000E+00  0.000000E+00  0.000000E+00                                                                                                                                                                                                                                                                                                                                                                                                                                                                                              
  8.000000E+02  1.250000E+02 -5.225000E+03 -1.206872E+08 -1.193028E+08 -1.208057E+08  1.082707E-03 -1.056019E+04 -1.198877E-01 -1.199757E-04  8.875394E-11 -1.302528E-04  2.519798E-13 -2.457686E-06 -2.078054E-11 -2.502285E-04  0.000000E+00  0.000000E+00  0.000000E+00  0.000000E+00  0.000000E+00  0.000000E+00  0.000000E+00                                                                                                                                                                                                                                                                                                                                                                                                                                                                                              
  9.350000E+02  1.250000E+02 -5.225000E+03 -1.206763E+08 -1.200506E+08 -1.215701E+08 -1.120084E-02 -3.824780E+04 -1.067453E-01 -5.422497E-05  7.887239E-11 -1.316880E-04 -2.606786E-12 -8.901461E-06 -1.850252E-11 -1.859129E-04  0.000000E+00  0.000000E+00  0.000000E+00  0.000000E+00  0.000000E+00  0.000000E+00  0.000000E+00                                                                                                                                                                                                                                                                                                                                                                                                                                                                                              
  1.185000E+03  1.250000E+02 -5.225000E+03 -1.206485E+08 -1.208167E+08 -1.223766E+08 -1.305759E-02 -4.536487E+04 -5.457278E-02  1.457185E-05  6.455724E-11 -1.351925E-04 -3.038910E-12 -1.055783E-05 -9.459282E-12 -1.206206E-04  0.000000E+00  0.000000E+00  0.000000E+00  0.000000E+00  0.000000E+00  0.000000E+00  0.000000E+00                                                                                                                                                                                                                                                                                                                                                                                                                                                                                              
  1.435000E+03  1.250000E+02 -5.225000E+03 -1.206331E+08 -1.212694E+08 -1.228592E+08 -8.662327E-03 -1.655023E+04 -1.955993E-02  5.514595E-05  5.755996E-11 -1.377831E-04 -2.015995E-12 -3.851756E-06 -3.390388E-12 -8.263707E-05  0.000000E+00  0.000000E+00  0.000000E+00  0.000000E+00  0.000000E+00  0.000000E+00  0.000000E+00                                                                                                                                                                                                                                                                                                                                                                                                                                                                                              
  1.250000E+02  1.250000E+02 -4.975000E+03 -1.157549E+08 -1.164311E+08 -1.179441E+08 -6.620340E-03  2.266973E+04  9.752217E-03  5.859954E-05  3.544525E-11 -1.311271E-04 -1.540761E-12  5.275956E-06  1.690384E-12 -7.252752E-05  0.000000E+00  0.000000E+00  0.000000E+00  0.000000E+00  0.000000E+00  0.000000E+00  0.000000E+00                                                                                                                                                                                                                                                                                                                                                                                                                                                                                              
  3.750000E+02  1.250000E+02 -4.975000E+03 -1.157625E+08 -1.159575E+08 -1.174518E+08 -1.623374E-02  6.106332E+04  1.938243E-02  1.690350E-05  4.280908E-11 -1.295069E-04 -3.778100E-12  1.421135E-05  3.359622E-12 -1.126033E-04  0.000000E+00  0.000000E+00  0.000000E+00  0.000000E+00  0.000000E+00  0.000000E+00  0.000000E+00                                                                                                                                                                                                                                                                                                                                                                                                                                                                                              
  6.250000E+02  1.250000E+02 -4.975000E+03 -1.157655E+08 -1.150988E+08 -1.165661E+08 -4.660333E-02  5.436627E+04  1.736980E-02 -5.778651E-05  5.634718E-11 -1.271713E-04 -1.084606E-11  1.265274E-05  3.010765E-12 -1.849578E-04  0.000000E+00  0.000000E+00  0.000000E+00  0.000000E+00  0.000000E+00  0.000000E+00  0.000000E+00                                                                                                                                                                                                                                                                                                                                                                                                                                                                                              
  7.600000E+02  1.250000E+02 -4.975000E+03 -1.158056E+08 -1.142304E+08 -1.156770E+08 -7.036316E-02  3.734718E+04  2.939749E-02 -1.365164E-04  6.585067E-11 -1.253718E-04 -1.637571E-11  8.691859E-06  5.095565E-12 -2.618881E-04  0.000000E+00  0.000000E+00  0.000000E+00  0.000000E+00  0.000000E+00  0.000000E+00  0.000000E+00                                                                                                                                                                                                                                                                                                                                                                                                                                                                                              
  7.800000E+02  1.250000E+02 -4.975000E+03 -1.158096E+08 -1.138495E+08 -1.152892E+08 -7.178769E-02 -7.001265E-02  1.372194E-02 -1.698797E-04  6.790291E-11 -1.247759E-04 -1.670724E-11 -1.629414E-11  2.378470E-12 -2.946556E-04  0.000000E+00  0.000000E+00  0.000000E+00  0.000000E+00  0.000000E+00  0.000000E+00  0.000000E+00                                                                                                                                                                                                                                                                                                                                                                                                                                                                                              
  8.000000E+02  1.250000E+02 -4.975000E+03 -1.158056E+08 -1.142304E+08 -1.156770E+08 -6.531259E-02 -3.734716E+04 -9.429609E-02 -1.365164E-04  6.827938E-11 -1.253718E-04 -1.520029E-11 -8.691855E-06 -1.634466E-11 -2.618881E-04  0.000000E+00  0.000000E+00  0.000000E+00  0.000000E+00  0.000000E+00  0.000000E+00  0.000000E+00                                                                                                                                                                                                                                                                                                                                                                                                                                                                                              
  9.350000E+02  1.250000E+02 -4.975000E+03 -1.157655E+08 -1.150988E+08 -1.165661E+08 -3.865038E-02 -5.436628E+04 -6.926680E-02 -5.778652E-05  6.165415E-11 -1.271713E-04 -8.995155E-12 -1.265274E-05 -1.200625E-11 -1.849578E-04  0.000000E+00  0.000000E+00  0.000000E+00  0.000000E+00  0.000000E+00  0.000000E+00  0.000000E+00                                                                                                                                                                                                                                                                                                                                                                                                                                                                                              
  1.185000E+03  1.250000E+02 -4.975000E+03 -1.157625E+08 -1.159575E+08 -1.174518E+08 -1.791992E-02 -6.106333E+04 -3.506979E-02  1.690348E-05  5.223775E-11 -1.295069E-04 -4.170527E-12 -1.421135E-05 -6.078764E-12 -1.126033E-04  0.000000E+00  0.000000E+00  0.000000E+00  0.000000E+00  0.000000E+00  0.000000E+00  0.000000E+00                                                                                                                                                                                                                                                                                                                                                                                                                                                                                              
  1.435000E+03  1.250000E+02 -4.975000E+03 -1.157549E+08 -1.164311E+08 -1.179441E+08 -1.643820E-02 -2.266973E+04 -1.466968E-02  5.859952E-05  4.748259E-11 -1.311271E-04 -3.825685E-12 -5.275956E-06 -2.542744E-12 -7.252753E-05  0.000000E+00  0.000000E+00  0.000000E+00  0.000000E+00  0.000000E+00  0.000000E+00  0.000000E+00                                                                                                                                                                                                                                                                                                                                                                                                                                                                                              
  1.250000E+02  1.250000E+02 -4.725000E+03 -1.109091E+08 -1.116031E+08 -1.130318E+08  8.161271E-04  1.298278E+04  8.335859E-03  6.014203E-05  2.402115E-11 -1.238259E-04  1.899383E-13  3.021500E-06  1.444882E-12 -6.368385E-05  0.000000E+00  0.000000E+00  0.000000E+00  0.000000E+00  0.000000E+00  0.000000E+00  0.000000E+00                                                                                                                                                                                                                                                                                                                                                                                                                                                                                              
  3.750000E+02  1.250000E+02 -4.725000E+03 -1.108554E+08 -1.111084E+08 -1.125308E+08 -9.689071E-04  6.329529E+04  2.402303E-02  2.193101E-05  2.859275E-11 -1.232769E-04 -2.254950E-13  1.473080E-05  4.163991E-12 -1.013458E-04  0.000000E+00  0.000000E+00  0.000000E+00  0.000000E+00  0.000000E+00  0.000000E+00  0.000000E+00                                                                                                                                                                                                                                                                                                                                                                                                                                                                                              
  6.250000E+02  1.250000E+02 -4.725000E+03 -1.108987E+08 -1.101748E+08 -1.115627E+08 -7.515031E-03  6.424783E+04  4.118404E-02 -6.273767E-05  3.610633E-11 -1.202822E-04 -1.748983E-12  1.495248E-05  7.138567E-12 -1.830198E-04  0.000000E+00  0.000000E+00  0.000000E+00  0.000000E+00  0.000000E+00  0.000000E+00  0.000000E+00                                                                                                                                                                                                                                                                                                                                                                                                                                                                                              
  7.600000E+02  1.250000E+02 -4.725000E+03 -1.107858E+08 -1.090759E+08 -1.104635E+08 -1.187159E-02 -3.642471E+04  3.457700E-02 -1.481915E-04  4.061126E-11 -1.202546E-04 -2.762891E-12 -8.477172E-06  5.993347E-12 -2.684460E-04  0.000000E+00  0.000000E+00  0.000000E+00  0.000000E+00  0.000000E+00  0.000000E+00  0.000000E+00                                                                                                                                                                                                                                                                                                                                                                                                                                                                                              
  7.800000E+02  1.250000E+02 -4.725000E+03 -1.107656E+08 -1.086079E+08 -1.100166E+08 -1.064992E-02  7.358667E-02  3.467006E-02 -1.870005E-04  4.097289E-11 -1.220934E-04 -2.478570E-12  1.712592E-11  6.009478E-12 -3.090938E-04  0.000000E+00  0.000000E+00  0.000000E+00  0.000000E+00  0.000000E+00  0.000000E+00  0.000000E+00                                                                                                                                                                                                                                                                                                                                                                                                                                                                                              
  8.000000E+02  1.250000E+02 -4.725000E+03 -1.107858E+08 -1.090759E+08 -1.104635E+08 -1.055652E-02  3.642501E+04  3.905448E-02 -1.481915E-04  4.145281E-11 -1.202546E-04 -2.456833E-12  8.477242E-06  6.769444E-12 -2.684460E-04  0.000000E+00  0.000000E+00  0.000000E+00  0.000000E+00  0.000000E+00  0.000000E+00  0.000000E+00                                                                                                                                                                                                                                                                                                                                                                                                                                                                                              
  9.350000E+02  1.250000E+02 -4.725000E+03 -1.108987E+08 -1.101748E+08 -1.115627E+08 -1.166903E-02 -6.424772E+04 -5.934671E-03 -6.273769E-05  4.040461E-11 -1.202821E-04 -2.715749E-12 -1.495246E-05 -1.028676E-12 -1.830198E-04  0.000000E+00  0.000000E+00  0.000000E+00  0.000000E+00  0.000000E+00  0.000000E+00  0.000000E+00                                                                                                                                                                                                                                                                                                                                                                                                                                                                                              
  1.185000E+03  1.250000E+02 -4.725000E+03 -1.108554E+08 -1.111084E+08 -1.125308E+08 -1.331050E-02 -6.329530E+04 -1.888459E-02  2.193099E-05  3.696682E-11 -1.232769E-04 -3.097771E-12 -1.473080E-05 -3.273329E-12 -1.013458E-04  0.000000E+00  0.000000E+00  0.000000E+00  0.000000E+00  0.000000E+00  0.000000E+00  0.000000E+00                                                                                                                                                                                                                                                                                                                                                                                                                                                                                              