Title="TREACTMECH V1.0-OMP-MPI displacement.tec: Nodal Displacements"                                                                                                                                                                                                                                                                                                                                                                                                                                                                                                                                                                                                                                                                                                                                                           
Variables= "X(m)"     "Y(m)"      "Z(m)"      "Disp_x"      "Disp_y"      "Disp_z"                                                                                                                                                                                                                                                                                                                                                                                                                                                                                                                                                                                                                                                                                                                                              
Zone T= "5.00000000E-02 sec" I=    10 J=    11 K=    24 F=Point
  0.000000E+00  0.000000E+00 -5.500000E+03  0.000000E+00  0.000000E+00  0.000000E+00                                                                                                                                                                                                                                                                                                                                                                                                                                                                                                                                                                                                                                                                                                                                            
  2.500000E+02  0.000000E+00 -5.500000E+03  1.316668E-02  0.000000E+00  0.000000E+00                                                                                                                                                                                                                                                                                                                                                                                                                                                                                                                                                                                                                                                                                                                                            
  5.000000E+02  0.000000E+00 -5.500000E+03  1.634421E-02  0.000000E+00  0.000000E+00                                                                                                                                                                                                                                                                                                                                                                                                                                                                                                                                                                                                                                                                                                                                            
  7.500000E+02  0.000000E+00 -5.500000E+03  3.470588E-03  0.000000E+00  0.000000E+00                                                                                                                                                                                                                                                                                                                                                                                                                                                                                                                                                                                                                                                                                                                                            
  7.700000E+02  0.000000E+00 -5.500000E+03  1.305042E-03  0.000000E+00  0.000000E+00                                                                                                                                                                                                                                                                                                                                                                                                                                                                                                                                                                                                                                                                                                                                            
  7.900000E+02  0.000000E+00 -5.500000E+03 -1.305130E-03  0.000000E+00  0.000000E+00                                                                                                                                                                                                                                                                                                                                                                                                                                                                                                                                                                                                                                                                                                                                            
  8.100000E+02  0.000000E+00 -5.500000E+03 -3.470666E-03  0.000000E+00  0.000000E+00                                                                                                                                                                                                                                                                                                                                                                                                                                                                                                                                                                                                                                                                                                                                            
  1.060000E+03  0.000000E+00 -5.500000E+03 -1.634424E-02  0.000000E+00  0.000000E+00                                                                                                                                                                                                                                                                                                                                                                                                                                                                                                                                                                                                                                                                                                                                            
  1.310000E+03  0.000000E+00 -5.500000E+03 -1.316669E-02  0.000000E+00  0.000000E+00                                                                                                                                                                                                                                                                                                                                                                                                                                                                                                                                                                                                                                                                                                                                            
  1.560000E+03  0.000000E+00 -5.500000E+03  0.000000E+00  0.000000E+00  0.000000E+00                                                                                                                                                                                                                                                                                                                                                                                                                                                                                                                                                                                                                                                                                                                                            
  0.000000E+00  2.500000E+02 -5.500000E+03  0.000000E+00 -4.919564E-08  0.000000E+00                                                                                                                                                                                                                                                                                                                                                                                                                                                                                                                                                                                                                                                                                                                                            
  2.500000E+02  2.500000E+02 -5.500000E+03  1.316668E-02 -5.267490E-08  0.000000E+00                                                                                                                                                                                                                                                                                                                                                                                                                                                                                                                                                                                                                                                                                                                                            
  5.000000E+02  2.500000E+02 -5.500000E+03  1.634422E-02 -6.763319E-08  0.000000E+00                                                                                                                                                                                                                                                                                                                                                                                                                                                                                                                                                                                                                                                                                                                                            
  7.500000E+02  2.500000E+02 -5.500000E+03  3.470632E-03 -9.501106E-08  0.000000E+00                                                                                                                                                                                                                                                                                                                                                                                                                                                                                                                                                                                                                                                                                                                                            
  7.700000E+02  2.500000E+02 -5.500000E+03  1.305092E-03 -1.017853E-07  0.000000E+00                                                                                                                                                                                                                                                                                                                                                                                                                                                                                                                                                                                                                                                                                                                                            
  7.900000E+02  2.500000E+02 -5.500000E+03 -1.305078E-03 -1.088181E-07  0.000000E+00                                                                                                                                                                                                                                                                                                                                                                                                                                                                                                                                                                                                                                                                                                                                            
  8.100000E+02  2.500000E+02 -5.500000E+03 -3.470623E-03 -1.034134E-07  0.000000E+00                                                                                                                                                                                                                                                                                                                                                                                                                                                                                                                                                                                                                                                                                                                                            
  1.060000E+03  2.500000E+02 -5.500000E+03 -1.634424E-02 -7.416312E-08  0.000000E+00                                                                                                                                                                                                                                                                                                                                                                                                                                                                                                                                                                                                                                                                                                                                            
  1.310000E+03  2.500000E+02 -5.500000E+03 -1.316669E-02 -6.598594E-08  0.000000E+00                                                                                                                                                                                                                                                                                                                                                                                                                                                                                                                                                                                                                                                                                                                                            
  1.560000E+03  2.500000E+02 -5.500000E+03  0.000000E+00 -6.495991E-08  0.000000E+00                                                                                                                                                                                                                                                                                                                                                                                                                                                                                                                                                                                                                                                                                                                                            
  0.000000E+00  5.000000E+02 -5.500000E+03  0.000000E+00 -9.554894E-08  0.000000E+00                                                                                                                                                                                                                                                                                                                                                                                                                                                                                                                                                                                                                                                                                                                                            
  2.500000E+02  5.000000E+02 -5.500000E+03  1.316668E-02 -1.030194E-07  0.000000E+00                                                                                                                                                                                                                                                                                                                                                                                                                                                                                                                                                                                                                                                                                                                                            
  5.000000E+02  5.000000E+02 -5.500000E+03  1.634422E-02 -1.335781E-07  0.000000E+00                                                                                                                                                                                                                                                                                                                                                                                                                                                                                                                                                                                                                                                                                                                                            
  7.500000E+02  5.000000E+02 -5.500000E+03  3.470619E-03 -1.710764E-07  0.000000E+00                                                                                                                                                                                                                                                                                                                                                                                                                                                                                                                                                                                                                                                                                                                                            
  7.700000E+02  5.000000E+02 -5.500000E+03  1.305077E-03 -1.738650E-07  0.000000E+00                                                                                                                                                                                                                                                                                                                                                                                                                                                                                                                                                                                                                                                                                                                                            
  7.900000E+02  5.000000E+02 -5.500000E+03 -1.305094E-03 -1.774316E-07  0.000000E+00                                                                                                                                                                                                                                                                                                                                                                                                                                                                                                                                                                                                                                                                                                                                            
  8.100000E+02  5.000000E+02 -5.500000E+03 -3.470633E-03 -1.790832E-07  0.000000E+00                                                                                                                                                                                                                                                                                                                                                                                                                                                                                                                                                                                                                                                                                                                                            
  1.060000E+03  5.000000E+02 -5.500000E+03 -1.634422E-02 -1.472954E-07  0.000000E+00                                                                                                                                                                                                                                                                                                                                                                                                                                                                                                                                                                                                                                                                                                                                            
  1.310000E+03  5.000000E+02 -5.500000E+03 -1.316668E-02 -1.247241E-07  0.000000E+00                                                                                                                                                                                                                                                                                                                                                                                                                                                                                                                                                                                                                                                                                                                                            
  1.560000E+03  5.000000E+02 -5.500000E+03  0.000000E+00 -1.208142E-07  0.000000E+00                                                                                                                                                                                                                                                                                                                                                                                                                                                                                                                                                                                                                                                                                                                                            
  0.000000E+00  7.500000E+02 -5.500000E+03  0.000000E+00 -1.349281E-07  0.000000E+00                                                                                                                                                                                                                                                                                                                                                                                                                                                                                                                                                                                                                                                                                                                                            
  2.500000E+02  7.500000E+02 -5.500000E+03  1.316669E-02 -1.466148E-07  0.000000E+00                                                                                                                                                                                                                                                                                                                                                                                                                                                                                                                                                                                                                                                                                                                                            
  5.000000E+02  7.500000E+02 -5.500000E+03  1.634424E-02 -1.911764E-07  0.000000E+00                                                                                                                                                                                                                                                                                                                                                                                                                                                                                                                                                                                                                                                                                                                                            
  7.500000E+02  7.500000E+02 -5.500000E+03  3.470665E-03 -2.598375E-07  0.000000E+00                                                                                                                                                                                                                                                                                                                                                                                                                                                                                                                                                                                                                                                                                                                                            
  7.700000E+02  7.500000E+02 -5.500000E+03  1.305125E-03 -2.629222E-07  0.000000E+00                                                                                                                                                                                                                                                                                                                                                                                                                                                                                                                                                                                                                                                                                                                                            