Title="TOUGHREACT V3.30-OMP flowvector.tec: Liq & Gas Fluxes (kg/s/m^2), Pore Velocities (m/s), & Heat Fluxes (J/s/m2)"                                                                                                                                                                                                                                                                                                                                                                                                                                                                                                                                                                                                                                                                                                         
Variables= "X(m)"     "Y(m)"      "Z(m)"     "FluxLiq"   "FluxLiq_X"   "FluxLiq_Y"   "FluxLiq_Z"   "PorVelLiq"  "PorVelLiqX"  "PorVelLiqY"  "PorVelLiqZ"     "FluxGas"   "FluxGas_X"   "FluxGas_Y"   "FluxGas_Z"   "PorVelGas"  "PorVelGasX"  "PorVelGasY"  "PorVelGasZ"    "HeatFlux"  "HeatFlux_X"  "HeatFlux_Y"  "HeatFlux_Z"                                                                                                                                                                                                                                                                                                                                                                                                                                                                                                
Zone T= "5.18400000E+05 sec" I=     9 J=    10 K=    23 F=Point
  1.250000E+02  1.250000E+02 -5.425000E+03  2.566702E-07 -2.451268E-07 -2.194944E-13  7.610805E-08  1.443813E-09 -1.378888E-09 -1.234626E-15  4.280937E-10  0.000000E+00  0.000000E+00  0.000000E+00  0.000000E+00  0.000000E+00  0.000000E+00  0.000000E+00  0.000000E+00  2.318035E-01 -2.172166E-01 -1.971388E-07  8.093094E-02                                                                                                                                                                                                                                                                                                                                                                                                                                                                                              
  3.750000E+02  1.250000E+02 -5.425000E+03  6.598850E-07 -6.577020E-07 -3.345582E-14  5.363023E-08  3.712071E-09 -3.699793E-09 -1.881844E-16  3.016586E-10  0.000000E+00  0.000000E+00  0.000000E+00  0.000000E+00  0.000000E+00  0.000000E+00  0.000000E+00  0.000000E+00  5.860999E-01 -5.829141E-01 -2.914140E-08  6.102613E-02                                                                                                                                                                                                                                                                                                                                                                                                                                                                                              
  6.250000E+02  1.250000E+02 -5.425000E+03  8.439213E-07 -8.439179E-07 -2.787859E-13 -2.380375E-09  4.747491E-09 -4.747472E-09 -1.568127E-15 -1.337555E-11  0.000000E+00  0.000000E+00  0.000000E+00  0.000000E+00  0.000000E+00  0.000000E+00  0.000000E+00  0.000000E+00  7.481749E-01 -7.480879E-01 -2.494609E-07  1.140946E-02                                                                                                                                                                                                                                                                                                                                                                                                                                                                                              
  7.600000E+02  1.250000E+02 -5.425000E+03  5.896489E-07 -5.880041E-07 -2.407868E-13 -4.401070E-08  3.317144E-09 -3.307911E-09 -1.354496E-15 -2.473253E-10  0.000000E+00  0.000000E+00  0.000000E+00  0.000000E+00  0.000000E+00  0.000000E+00  0.000000E+00  0.000000E+00  5.218410E-01 -5.212290E-01 -2.139010E-07 -2.526611E-02                                                                                                                                                                                                                                                                                                                                                                                                                                                                                              
  7.800000E+02  1.250000E+02 -5.425000E+03  4.626734E-08  3.125937E-13 -2.238828E-13 -4.626734E-08  2.600330E-10  1.758569E-15 -1.259513E-15 -2.600330E-10  0.000000E+00  0.000000E+00  0.000000E+00  0.000000E+00  0.000000E+00  0.000000E+00  0.000000E+00  0.000000E+00  2.725381E-02  2.829192E-07 -2.001768E-07 -2.725381E-02                                                                                                                                                                                                                                                                                                                                                                                                                                                                                              
  8.000000E+02  1.250000E+02 -5.425000E+03  5.896488E-07  5.880041E-07 -2.105424E-13 -4.401069E-08  3.317143E-09  3.307910E-09 -1.184362E-15 -2.473253E-10  0.000000E+00  0.000000E+00  0.000000E+00  0.000000E+00  0.000000E+00  0.000000E+00  0.000000E+00  0.000000E+00  5.218409E-01  5.212289E-01 -1.890171E-07 -2.526610E-02                                                                                                                                                                                                                                                                                                                                                                                                                                                                                              
  9.350000E+02  1.250000E+02 -5.425000E+03  8.439214E-07  8.439180E-07  1.172533E-13 -2.379849E-09  4.747492E-09  4.747473E-09  6.595313E-16 -1.337260E-11  0.000000E+00  0.000000E+00  0.000000E+00  0.000000E+00  0.000000E+00  0.000000E+00  0.000000E+00  0.000000E+00  7.481750E-01  7.480880E-01  1.077089E-07  1.140992E-02                                                                                                                                                                                                                                                                                                                                                                                                                                                                                              
  1.185000E+03  1.250000E+02 -5.425000E+03  6.598852E-07  6.577022E-07 -8.010371E-14  5.363055E-08  3.712072E-09  3.699794E-09 -4.505723E-16  3.016604E-10  0.000000E+00  0.000000E+00  0.000000E+00  0.000000E+00  0.000000E+00  0.000000E+00  0.000000E+00  0.000000E+00  5.861001E-01  5.829143E-01 -7.109045E-08  6.102641E-02                                                                                                                                                                                                                                                                                                                                                                                                                                                                                              
  1.435000E+03  1.250000E+02 -5.425000E+03  2.566701E-07  2.451266E-07  2.299435E-13  7.610849E-08  1.443812E-09  1.378886E-09  1.293401E-15  4.280961E-10  0.000000E+00  0.000000E+00  0.000000E+00  0.000000E+00  0.000000E+00  0.000000E+00  0.000000E+00  0.000000E+00  2.318034E-01  2.172163E-01  2.050380E-07  8.093132E-02                                                                                                                                                                                                                                                                                                                                                                                                                                                                                              
  1.250000E+02  1.250000E+02 -5.225000E+03  2.969400E-07 -2.622775E-07  7.273831E-14  1.392260E-07  1.668591E-09 -1.473824E-09  4.087141E-16  7.823284E-10  0.000000E+00  0.000000E+00  0.000000E+00  0.000000E+00  0.000000E+00  0.000000E+00  0.000000E+00  0.000000E+00  2.877275E-01 -2.309496E-01  6.288304E-08  1.716083E-01                                                                                                                                                                                                                                                                                                                                                                                                                                                                                              
  3.750000E+02  1.250000E+02 -5.225000E+03  7.252055E-07 -7.182129E-07 -4.518465E-14  1.004650E-07  4.075280E-09 -4.035993E-09 -2.538911E-16  5.645065E-10  0.000000E+00  0.000000E+00  0.000000E+00  0.000000E+00  0.000000E+00  0.000000E+00  0.000000E+00  0.000000E+00  6.472946E-01 -6.325463E-01 -4.248234E-08  1.373879E-01                                                                                                                                                                                                                                                                                                                                                                                                                                                                                              
  6.250000E+02  1.250000E+02 -5.225000E+03  9.476195E-07 -9.475712E-07 -2.227304E-13 -9.565227E-09  5.325356E-09 -5.325086E-09 -1.251512E-15 -5.365040E-11  0.000000E+00  0.000000E+00  0.000000E+00  0.000000E+00  0.000000E+00  0.000000E+00  0.000000E+00  0.000000E+00  8.356913E-01 -8.347172E-01 -1.983419E-07  4.033801E-02                                                                                                                                                                                                                                                                                                                                                                                                                                                                                              
  7.600000E+02  1.250000E+02 -5.225000E+03  6.782577E-07 -6.704781E-07 -2.195450E-13 -1.024334E-07  3.811619E-09 -3.768021E-09 -1.233728E-15 -5.748547E-10  0.000000E+00  0.000000E+00  0.000000E+00  0.000000E+00  0.000000E+00  0.000000E+00  0.000000E+00  0.000000E+00  5.920243E-01 -5.906272E-01 -1.957007E-07 -4.064780E-02                                                                                                                                                                                                                                                                                                                                                                                                                                                                                              
  7.800000E+02  1.250000E+02 -5.225000E+03  1.074631E-07  4.229543E-13 -1.853215E-13 -1.074631E-07  6.031505E-10  2.377144E-15 -1.041514E-15 -6.031505E-10  0.000000E+00  0.000000E+00  0.000000E+00  0.000000E+00  0.000000E+00  0.000000E+00  0.000000E+00  0.000000E+00  4.503342E-02  3.482543E-07 -1.679999E-07 -4.503342E-02                                                                                                                                                                                                                                                                                                                                                                                                                                                                                              
  8.000000E+02  1.250000E+02 -5.225000E+03  6.782585E-07  6.704789E-07 -2.010229E-13 -1.024333E-07  3.811624E-09  3.768026E-09 -1.129644E-15 -5.748546E-10  0.000000E+00  0.000000E+00  0.000000E+00  0.000000E+00  0.000000E+00  0.000000E+00  0.000000E+00  0.000000E+00  5.920250E-01  5.906279E-01 -1.774612E-07 -4.064777E-02                                                                                                                                                                                                                                                                                                                                                                                                                                                                                              
  9.350000E+02  1.250000E+02 -5.225000E+03  9.476202E-07  9.475719E-07 -2.903750E-13 -9.564785E-09  5.325360E-09  5.325090E-09 -1.631604E-15 -5.364792E-11  0.000000E+00  0.000000E+00  0.000000E+00  0.000000E+00  0.000000E+00  0.000000E+00  0.000000E+00  0.000000E+00  8.356919E-01  8.347178E-01 -2.575058E-07  4.033840E-02                                                                                                                                                                                                                                                                                                                                                                                                                                                                                              
  1.185000E+03  1.250000E+02 -5.225000E+03  7.252056E-07  7.182130E-07 -3.023587E-13  1.004650E-07  4.075281E-09  4.035994E-09 -1.698943E-15  5.645068E-10  0.000000E+00  0.000000E+00  0.000000E+00  0.000000E+00  0.000000E+00  0.000000E+00  0.000000E+00  0.000000E+00  6.472947E-01  6.325464E-01 -2.687250E-07  1.373879E-01                                                                                                                                                                                                                                                                                                                                                                                                                                                                                              
  1.435000E+03  1.250000E+02 -5.225000E+03  2.969401E-07  2.622773E-07  8.589711E-14  1.392265E-07  1.668591E-09  1.473823E-09  4.826529E-16  7.823309E-10  0.000000E+00  0.000000E+00  0.000000E+00  0.000000E+00  0.000000E+00  0.000000E+00  0.000000E+00  0.000000E+00  2.877277E-01  2.309495E-01  7.433636E-08  1.716087E-01                                                                                                                                                                                                                                                                                                                                                                                                                                                                                              
  1.250000E+02  1.250000E+02 -4.975000E+03  2.783965E-07 -2.752270E-07  3.133417E-14  4.188916E-08  1.558973E-09 -1.541041E-09  1.754332E-16  2.357770E-10  0.000000E+00  0.000000E+00  0.000000E+00  0.000000E+00  0.000000E+00  0.000000E+00  0.000000E+00  0.000000E+00  2.695937E-01 -2.378797E-01  2.730729E-08  1.268624E-01                                                                                                                                                                                                                                                                                                                                                                                                                                                                                              
  3.750000E+02  1.250000E+02 -4.975000E+03  7.808815E-07 -7.791460E-07 -2.032653E-13  5.203319E-08  4.372465E-09 -4.362711E-09 -1.138037E-15  2.918885E-10  0.000000E+00  0.000000E+00  0.000000E+00  0.000000E+00  0.000000E+00  0.000000E+00  0.000000E+00  0.000000E+00  6.869452E-01 -6.735689E-01 -1.759851E-07  1.349024E-01                                                                                                                                                                                                                                                                                                                                                                                                                                                                                              
  6.250000E+02  1.250000E+02 -4.975000E+03  1.084989E-06 -1.084688E-06 -3.035670E-13 -2.557575E-08  6.075539E-09 -6.073858E-09 -1.699595E-15 -1.428987E-10  0.000000E+00  0.000000E+00  0.000000E+00  0.000000E+00  0.000000E+00  0.000000E+00  0.000000E+00  0.000000E+00  9.403818E-01 -9.379504E-01 -2.634404E-07  6.757890E-02                                                                                                                                                                                                                                                                                                                                                                                                                                                                                              
  7.600000E+02  1.250000E+02 -4.975000E+03  7.994862E-07 -7.924176E-07 -3.332276E-13 -1.060775E-07  4.476945E-09 -4.437433E-09 -1.865862E-15 -5.934890E-10  0.000000E+00  0.000000E+00  0.000000E+00  0.000000E+00  0.000000E+00  0.000000E+00  0.000000E+00  0.000000E+00  6.852437E-01 -6.852424E-01 -2.917837E-07 -1.310127E-03                                                                                                                                                                                                                                                                                                                                                                                                                                                                                              
  7.800000E+02  1.250000E+02 -4.975000E+03  1.105072E-07  6.363388E-13 -3.596673E-13 -1.105072E-07  6.183633E-10  3.563723E-15 -2.014150E-15 -6.183633E-10  0.000000E+00  0.000000E+00  0.000000E+00  0.000000E+00  0.000000E+00  0.000000E+00  0.000000E+00  0.000000E+00  5.098943E-03  5.168101E-07 -3.112659E-07 -5.098943E-03                                                                                                                                                                                                                                                                                                                                                                                                                                                                                              
  8.000000E+02  1.250000E+02 -4.975000E+03  7.994870E-07  7.924185E-07 -3.766421E-13 -1.060775E-07  4.476950E-09  4.437438E-09 -2.108955E-15 -5.934887E-10  0.000000E+00  0.000000E+00  0.000000E+00  0.000000E+00  0.000000E+00  0.000000E+00  0.000000E+00  0.000000E+00  6.852444E-01  6.852431E-01 -3.260390E-07 -1.310080E-03                                                                                                                                                                                                                                                                                                                                                                                                                                                                                              
  9.350000E+02  1.250000E+02 -4.975000E+03  1.084990E-06  1.084688E-06 -4.183174E-13 -2.557532E-08  6.075541E-09  6.073860E-09 -2.342054E-15 -1.428963E-10  0.000000E+00  0.000000E+00  0.000000E+00  0.000000E+00  0.000000E+00  0.000000E+00  0.000000E+00  0.000000E+00  9.403821E-01  9.379507E-01 -3.630684E-07  6.757926E-02                                                                                                                                                                                                                                                                                                                                                                                                                                                                                              
  1.185000E+03  1.250000E+02 -4.975000E+03  7.808818E-07  7.791462E-07 -3.907353E-14  5.203339E-08  4.372466E-09  4.362713E-09 -2.187639E-16  2.918897E-10  0.000000E+00  0.000000E+00  0.000000E+00  0.000000E+00  0.000000E+00  0.000000E+00  0.000000E+00  0.000000E+00  6.869454E-01  6.735691E-01 -3.750298E-08  1.349026E-01                                                                                                                                                                                                                                                                                                                                                                                                                                                                                              
  1.435000E+03  1.250000E+02 -4.975000E+03  2.783966E-07  2.752271E-07 -8.824899E-14  4.188946E-08  1.558974E-09  1.541041E-09 -4.940869E-16  2.357787E-10  0.000000E+00  0.000000E+00  0.000000E+00  0.000000E+00  0.000000E+00  0.000000E+00  0.000000E+00  0.000000E+00  2.695940E-01  2.378798E-01 -7.657138E-08  1.268626E-01                                                                                                                                                                                                                                                                                                                                                                                                                                                                                              
  1.250000E+02  1.250000E+02 -4.725000E+03  2.159155E-06 -2.435096E-07 -1.116870E-13 -2.145379E-06  1.198440E-08 -1.355882E-09 -6.218410E-16 -1.190745E-08  0.000000E+00  0.000000E+00  0.000000E+00  0.000000E+00  0.000000E+00  0.000000E+00  0.000000E+00  0.000000E+00  1.647102E+00 -2.045261E-01 -9.379836E-08 -1.634354E+00                                                                                                                                                                                                                                                                                                                                                                                                                                                                                              
  3.750000E+02  1.250000E+02 -4.725000E+03  1.809375E-06 -7.610609E-07 -1.249662E-13 -1.641531E-06  1.004876E-08 -4.237889E-09 -6.957783E-16 -9.111420E-09  0.000000E+00  0.000000E+00  0.000000E+00  0.000000E+00  0.000000E+00  0.000000E+00  0.000000E+00  0.000000E+00  1.378149E+00 -6.393848E-01 -1.045735E-07 -1.220853E+00                                                                                                                                                                                                                                                                                                                                                                                                                                                                                              
  6.250000E+02  1.250000E+02 -4.725000E+03  1.313613E-06 -1.141258E-06 -1.901325E-13 -6.504684E-07  7.310066E-09 -6.355462E-09 -1.058622E-15 -3.611810E-09  0.000000E+00  0.000000E+00  0.000000E+00  0.000000E+00  0.000000E+00  0.000000E+00  0.000000E+00  0.000000E+00  1.042858E+00 -9.590825E-01 -1.600141E-07 -4.095288E-01                                                                                                                                                                                                                                                                                                                                                                                                                                                                                              
  7.600000E+02  1.250000E+02 -4.725000E+03  8.523989E-07 -8.521813E-07 -2.427797E-13 -1.925981E-08  4.747160E-09 -4.745927E-09 -1.351938E-15 -1.081715E-10  0.000000E+00  0.000000E+00  0.000000E+00  0.000000E+00  0.000000E+00  0.000000E+00  0.000000E+00  0.000000E+00  7.242642E-01 -7.161897E-01 -2.058424E-07  1.078464E-01                                                                                                                                                                                                                                                                                                                                                                                                                                                                                              
  7.800000E+02  1.250000E+02 -4.725000E+03  1.566926E-08  1.057804E-12 -2.505510E-13  1.566926E-08  8.589961E-11  5.891369E-15 -1.395420E-15  8.589961E-11  0.000000E+00  0.000000E+00  0.000000E+00  0.000000E+00  0.000000E+00  0.000000E+00  0.000000E+00  0.000000E+00  1.372275E-01  8.928577E-07 -2.151058E-07  1.372275E-01                                                                                                                                                                                                                                                                                                                                                                                                                                                                                              
  8.000000E+02  1.250000E+02 -4.725000E+03  8.524011E-07  8.521835E-07 -2.527456E-13 -1.925936E-08  4.747172E-09  4.745939E-09 -1.407434E-15 -1.081690E-10  0.000000E+00  0.000000E+00  0.000000E+00  0.000000E+00  0.000000E+00  0.000000E+00  0.000000E+00  0.000000E+00  7.242658E-01  7.161915E-01 -2.138125E-07  1.078454E-01                                                                                                                                                                                                                                                                                                                                                                                                                                                                                              
  9.350000E+02  1.250000E+02 -4.725000E+03  1.313613E-06  1.141259E-06 -2.836885E-13 -6.504663E-07  7.310066E-09  6.355469E-09 -1.579524E-15 -3.611798E-09  0.000000E+00  0.000000E+00  0.000000E+00  0.000000E+00  0.000000E+00  0.000000E+00  0.000000E+00  0.000000E+00  1.042858E+00  9.590834E-01 -2.392670E-07 -4.095270E-01                                                                                                                                                                                                                                                                                                                                                                                                                                                                                              
  1.185000E+03  1.250000E+02 -4.725000E+03  1.809370E-06  7.610609E-07 -1.786569E-13 -1.641526E-06  1.004874E-08  4.237889E-09 -9.947139E-16 -9.111389E-09  0.000000E+00  0.000000E+00  0.000000E+00  0.000000E+00  0.000000E+00  0.000000E+00  0.000000E+00  0.000000E+00  1.378145E+00  6.393848E-01 -1.514796E-07 -1.220848E+00                                                                                                                                                                                                                                                                                                                                                                                                                                                                                              