Title="TOUGHREACT V3.30-OMP flowvector.tec: Liq & Gas Fluxes (kg/s/m^2), Pore Velocities (m/s), & Heat Fluxes (J/s/m2)"                                                                                                                                                                                                                                                                                                                                                                                                                                                                                                                                                                                                                                                                                                         
Variables= "X(m)"     "Y(m)"      "Z(m)"     "FluxLiq"   "FluxLiq_X"   "FluxLiq_Y"   "FluxLiq_Z"   "PorVelLiq"  "PorVelLiqX"  "PorVelLiqY"  "PorVelLiqZ"     "FluxGas"   "FluxGas_X"   "FluxGas_Y"   "FluxGas_Z"   "PorVelGas"  "PorVelGasX"  "PorVelGasY"  "PorVelGasZ"    "HeatFlux"  "HeatFlux_X"  "HeatFlux_Y"  "HeatFlux_Z"                                                                                                                                                                                                                                                                                                                                                                                                                                                                                                
Zone T= "1.00000000E+07 sec" I=     9 J=    10 K=    23 F=Point
  1.250000E+02  1.250000E+02 -5.425000E+03  1.703766E-07 -1.621393E-07 -2.857412E-13 -5.233583E-08  9.582436E-10 -9.120140E-10 -1.607124E-15 -2.940427E-10  0.000000E+00  0.000000E+00  0.000000E+00  0.000000E+00  0.000000E+00  0.000000E+00  0.000000E+00  0.000000E+00  1.473263E-01 -1.436838E-01 -2.559233E-07 -3.255763E-02                                                                                                                                                                                                                                                                                                                                                                                                                                                                                              
  3.750000E+02  1.250000E+02 -5.425000E+03  3.666680E-07 -3.628669E-07 -5.469048E-13 -5.265961E-08  2.062551E-09 -2.041218E-09 -3.076151E-15 -2.958782E-10  0.000000E+00  0.000000E+00  0.000000E+00  0.000000E+00  0.000000E+00  0.000000E+00  0.000000E+00  0.000000E+00  3.232560E-01 -3.215833E-01 -4.841996E-07 -3.284254E-02                                                                                                                                                                                                                                                                                                                                                                                                                                                                                              
  6.250000E+02  1.250000E+02 -5.425000E+03  2.339913E-07 -2.273863E-07 -8.426188E-13 -5.520325E-08  1.316276E-09 -1.279199E-09 -4.739961E-15 -3.102123E-10  0.000000E+00  0.000000E+00  0.000000E+00  0.000000E+00  0.000000E+00  0.000000E+00  0.000000E+00  0.000000E+00  2.045404E-01 -2.015094E-01 -7.491844E-07 -3.508165E-02                                                                                                                                                                                                                                                                                                                                                                                                                                                                                              
  7.600000E+02  1.250000E+02 -5.425000E+03  6.618249E-08 -3.579345E-08 -6.837097E-13 -5.566822E-08  3.721148E-10 -2.013973E-10 -3.846885E-15 -3.129034E-10  0.000000E+00  0.000000E+00  0.000000E+00  0.000000E+00  0.000000E+00  0.000000E+00  0.000000E+00  0.000000E+00  4.755677E-02 -3.165665E-02 -6.064618E-07 -3.548947E-02                                                                                                                                                                                                                                                                                                                                                                                                                                                                                              
  7.800000E+02  1.250000E+02 -5.425000E+03  5.567864E-08  2.888922E-14 -6.570117E-13 -5.567864E-08  3.129994E-10  1.625599E-16 -3.697046E-15 -3.129994E-10  0.000000E+00  0.000000E+00  0.000000E+00  0.000000E+00  0.000000E+00  0.000000E+00  0.000000E+00  0.000000E+00  3.549786E-02  3.289798E-08 -5.838488E-07 -3.549786E-02                                                                                                                                                                                                                                                                                                                                                                                                                                                                                              
  8.000000E+02  1.250000E+02 -5.425000E+03  6.618254E-08  3.579359E-08 -6.285473E-13 -5.566819E-08  3.721151E-10  2.013981E-10 -3.536515E-15 -3.129033E-10  0.000000E+00  0.000000E+00  0.000000E+00  0.000000E+00  0.000000E+00  0.000000E+00  0.000000E+00  0.000000E+00  4.755683E-02  3.165677E-02 -5.593832E-07 -3.548945E-02                                                                                                                                                                                                                                                                                                                                                                                                                                                                                              
  9.350000E+02  1.250000E+02 -5.425000E+03  2.339915E-07  2.273866E-07 -4.314150E-13 -5.520306E-08  1.316277E-09  1.279201E-09 -2.426827E-15 -3.102112E-10  0.000000E+00  0.000000E+00  0.000000E+00  0.000000E+00  0.000000E+00  0.000000E+00  0.000000E+00  0.000000E+00  2.045406E-01  2.015096E-01 -3.786369E-07 -3.508148E-02                                                                                                                                                                                                                                                                                                                                                                                                                                                                                              
  1.185000E+03  1.250000E+02 -5.425000E+03  3.666681E-07  3.628670E-07 -1.646914E-13 -5.265938E-08  2.062551E-09  2.041219E-09 -9.263324E-16 -2.958770E-10  0.000000E+00  0.000000E+00  0.000000E+00  0.000000E+00  0.000000E+00  0.000000E+00  0.000000E+00  0.000000E+00  3.232561E-01  3.215834E-01 -1.460728E-07 -3.284234E-02                                                                                                                                                                                                                                                                                                                                                                                                                                                                                              
  1.435000E+03  1.250000E+02 -5.425000E+03  1.703765E-07  1.621392E-07 -3.600694E-14 -5.233559E-08  9.582431E-10  9.120140E-10 -2.025176E-16 -2.940414E-10  0.000000E+00  0.000000E+00  0.000000E+00  0.000000E+00  0.000000E+00  0.000000E+00  0.000000E+00  0.000000E+00  1.473262E-01  1.436838E-01 -3.062868E-08 -3.255742E-02                                                                                                                                                                                                                                                                                                                                                                                                                                                                                              
  1.250000E+02  1.250000E+02 -5.225000E+03  3.720779E-07 -1.619154E-07 -5.041112E-13 -3.350005E-07  2.086880E-09 -9.097570E-10 -2.832189E-15 -1.878141E-09  0.000000E+00  0.000000E+00  0.000000E+00  0.000000E+00  0.000000E+00  0.000000E+00  0.000000E+00  0.000000E+00  2.807514E-01 -1.425849E-01 -4.450980E-07 -2.418489E-01                                                                                                                                                                                                                                                                                                                                                                                                                                                                                              
  3.750000E+02  1.250000E+02 -5.225000E+03  4.847751E-07 -3.640756E-07 -1.000118E-12 -3.200874E-07  2.721435E-09 -2.045803E-09 -5.619152E-15 -1.794686E-09  0.000000E+00  0.000000E+00  0.000000E+00  0.000000E+00  0.000000E+00  0.000000E+00  0.000000E+00  0.000000E+00  3.939896E-01 -3.206288E-01 -8.835092E-07 -2.289649E-01                                                                                                                                                                                                                                                                                                                                                                                                                                                                                              
  6.250000E+02  1.250000E+02 -5.225000E+03  3.839182E-07 -2.294851E-07 -1.633293E-12 -3.077820E-07  2.154606E-09 -1.289631E-09 -9.177883E-15 -1.726031E-09  0.000000E+00  0.000000E+00  0.000000E+00  0.000000E+00  0.000000E+00  0.000000E+00  0.000000E+00  0.000000E+00  2.975297E-01 -2.020901E-01 -1.440787E-06 -2.183655E-01                                                                                                                                                                                                                                                                                                                                                                                                                                                                                              
  7.600000E+02  1.250000E+02 -5.225000E+03  3.097451E-07 -3.671541E-08 -1.301711E-12 -3.075614E-07  1.737599E-09 -2.063717E-10 -7.316470E-15 -1.725300E-09  0.000000E+00  0.000000E+00  0.000000E+00  0.000000E+00  0.000000E+00  0.000000E+00  0.000000E+00  0.000000E+00  2.205494E-01 -3.226052E-02 -1.149089E-06 -2.181772E-01                                                                                                                                                                                                                                                                                                                                                                                                                                                                                              
  7.800000E+02  1.250000E+02 -5.225000E+03  3.074534E-07  3.039443E-13 -1.248972E-12 -3.074534E-07  1.724936E-09  1.708578E-15 -7.020882E-15 -1.724936E-09  0.000000E+00  0.000000E+00  0.000000E+00  0.000000E+00  0.000000E+00  0.000000E+00  0.000000E+00  0.000000E+00  2.180820E-01  2.420384E-07 -1.104491E-06 -2.180820E-01                                                                                                                                                                                                                                                                                                                                                                                                                                                                                              
  8.000000E+02  1.250000E+02 -5.225000E+03  3.097450E-07  3.671607E-08 -1.194775E-12 -3.075613E-07  1.737599E-09  2.063753E-10 -6.715419E-15 -1.725299E-09  0.000000E+00  0.000000E+00  0.000000E+00  0.000000E+00  0.000000E+00  0.000000E+00  0.000000E+00  0.000000E+00  2.205494E-01  3.226107E-02 -1.052865E-06 -2.181771E-01                                                                                                                                                                                                                                                                                                                                                                                                                                                                                              
  9.350000E+02  1.250000E+02 -5.225000E+03  3.839179E-07  2.294856E-07 -8.083901E-13 -3.077812E-07  2.154605E-09  1.289634E-09 -4.542546E-15 -1.726026E-09  0.000000E+00  0.000000E+00  0.000000E+00  0.000000E+00  0.000000E+00  0.000000E+00  0.000000E+00  0.000000E+00  2.975295E-01  2.020906E-01 -7.137887E-07 -2.183649E-01                                                                                                                                                                                                                                                                                                                                                                                                                                                                                              
  1.185000E+03  1.250000E+02 -5.225000E+03  4.847746E-07  3.640757E-07 -3.158208E-13 -3.200864E-07  2.721432E-09  2.045804E-09 -1.774437E-15 -1.794680E-09  0.000000E+00  0.000000E+00  0.000000E+00  0.000000E+00  0.000000E+00  0.000000E+00  0.000000E+00  0.000000E+00  3.939892E-01  3.206290E-01 -2.806120E-07 -2.289640E-01                                                                                                                                                                                                                                                                                                                                                                                                                                                                                              
  1.435000E+03  1.250000E+02 -5.225000E+03  3.720770E-07  1.619154E-07 -1.083465E-13 -3.349995E-07  2.086875E-09  9.097570E-10 -6.087104E-16 -1.878135E-09  0.000000E+00  0.000000E+00  0.000000E+00  0.000000E+00  0.000000E+00  0.000000E+00  0.000000E+00  0.000000E+00  2.807506E-01  1.425849E-01 -9.675665E-08 -2.418480E-01                                                                                                                                                                                                                                                                                                                                                                                                                                                                                              
  1.250000E+02  1.250000E+02 -4.975000E+03  1.290425E-06 -1.448899E-07 -1.295293E-12 -1.282265E-06  7.204408E-09 -8.110375E-10 -7.249770E-15 -7.158611E-09  0.000000E+00  0.000000E+00  0.000000E+00  0.000000E+00  0.000000E+00  0.000000E+00  0.000000E+00  0.000000E+00  1.003741E+00 -1.252556E-01 -1.119675E-06 -9.958947E-01                                                                                                                                                                                                                                                                                                                                                                                                                                                                                              
  3.750000E+02  1.250000E+02 -4.975000E+03  1.242375E-06 -3.300184E-07 -2.718090E-12 -1.197741E-06  6.937864E-09 -1.847500E-09 -1.521425E-14 -6.687353E-09  0.000000E+00  0.000000E+00  0.000000E+00  0.000000E+00  0.000000E+00  0.000000E+00  0.000000E+00  0.000000E+00  9.674742E-01 -2.853082E-01 -2.350614E-06 -9.244488E-01                                                                                                                                                                                                                                                                                                                                                                                                                                                                                              
  6.250000E+02  1.250000E+02 -4.975000E+03  1.118630E-06 -2.112932E-07 -4.964870E-12 -1.098494E-06  6.247756E-09 -1.182985E-09 -2.779504E-14 -6.134737E-09  0.000000E+00  0.000000E+00  0.000000E+00  0.000000E+00  0.000000E+00  0.000000E+00  0.000000E+00  0.000000E+00  8.602072E-01 -1.826503E-01 -4.294495E-06 -8.405922E-01                                                                                                                                                                                                                                                                                                                                                                                                                                                                                              
  7.600000E+02  1.250000E+02 -4.975000E+03  1.092295E-06 -3.523111E-08 -3.857505E-12 -1.091727E-06  6.102200E-09 -1.973026E-10 -2.160207E-14 -6.099009E-09  0.000000E+00  0.000000E+00  0.000000E+00  0.000000E+00  0.000000E+00  0.000000E+00  0.000000E+00  0.000000E+00  8.354041E-01 -3.037090E-02 -3.338971E-06 -8.348518E-01                                                                                                                                                                                                                                                                                                                                                                                                                                                                                              
  7.800000E+02  1.250000E+02 -4.975000E+03  1.090944E-06  1.198156E-12 -3.675266E-12 -1.090944E-06  6.095657E-09  6.710664E-15 -2.058450E-14 -6.095657E-09  0.000000E+00  0.000000E+00  0.000000E+00  0.000000E+00  0.000000E+00  0.000000E+00  0.000000E+00  0.000000E+00  8.341852E-01  1.005182E-06 -3.178438E-06 -8.341852E-01                                                                                                                                                                                                                                                                                                                                                                                                                                                                                              
  8.000000E+02  1.250000E+02 -4.975000E+03  1.092295E-06  3.523356E-08 -3.484951E-12 -1.091726E-06  6.102199E-09  1.973163E-10 -1.951577E-14 -6.099008E-09  0.000000E+00  0.000000E+00  0.000000E+00  0.000000E+00  0.000000E+00  0.000000E+00  0.000000E+00  0.000000E+00  8.354040E-01  3.037298E-02 -3.013890E-06 -8.348516E-01                                                                                                                                                                                                                                                                                                                                                                                                                                                                                              
  9.350000E+02  1.250000E+02 -4.975000E+03  1.118629E-06  2.112948E-07 -2.153297E-12 -1.098492E-06  6.247749E-09  1.182994E-09 -1.205489E-14 -6.134729E-09  0.000000E+00  0.000000E+00  0.000000E+00  0.000000E+00  0.000000E+00  0.000000E+00  0.000000E+00  0.000000E+00  8.602062E-01  1.826517E-01 -1.863499E-06 -8.405909E-01                                                                                                                                                                                                                                                                                                                                                                                                                                                                                              
  1.185000E+03  1.250000E+02 -4.975000E+03  1.242373E-06  3.300188E-07 -7.979453E-13 -1.197739E-06  6.937852E-09  1.847502E-09 -4.466423E-15 -6.687341E-09  0.000000E+00  0.000000E+00  0.000000E+00  0.000000E+00  0.000000E+00  0.000000E+00  0.000000E+00  0.000000E+00  9.674725E-01  2.853085E-01 -6.936957E-07 -9.244469E-01                                                                                                                                                                                                                                                                                                                                                                                                                                                                                              
  1.435000E+03  1.250000E+02 -4.975000E+03  1.290423E-06  1.448899E-07 -3.349723E-13 -1.282263E-06  7.204394E-09  8.110377E-10 -1.874845E-15 -7.158597E-09  0.000000E+00  0.000000E+00  0.000000E+00  0.000000E+00  0.000000E+00  0.000000E+00  0.000000E+00  0.000000E+00  1.003739E+00  1.252556E-01 -2.899145E-07 -9.958926E-01                                                                                                                                                                                                                                                                                                                                                                                                                                                                                              
  1.250000E+02  1.250000E+02 -4.725000E+03  3.509163E-06 -7.310105E-08 -2.140433E-12 -3.508402E-06  1.948925E-08 -4.067168E-10 -1.190743E-14 -1.948501E-08  0.000000E+00  0.000000E+00  0.000000E+00  0.000000E+00  0.000000E+00  0.000000E+00  0.000000E+00  0.000000E+00  2.775604E+00 -6.142097E-02 -1.800000E-06 -2.774924E+00                                                                                                                                                                                                                                                                                                                                                                                                                                                                                              
  3.750000E+02  1.250000E+02 -4.725000E+03  3.299310E-06 -1.709183E-07 -4.368599E-12 -3.294880E-06  1.832633E-08 -9.510878E-10 -2.430534E-14 -1.830163E-08  0.000000E+00  0.000000E+00  0.000000E+00  0.000000E+00  0.000000E+00  0.000000E+00  0.000000E+00  0.000000E+00  2.602183E+00 -1.435889E-01 -3.673584E-06 -2.598218E+00                                                                                                                                                                                                                                                                                                                                                                                                                                                                                              
  6.250000E+02  1.250000E+02 -4.725000E+03  3.018750E-06 -1.139053E-07 -8.862210E-12 -3.016600E-06  1.677277E-08 -6.339326E-10 -4.931840E-14 -1.676079E-08  0.000000E+00  0.000000E+00  0.000000E+00  0.000000E+00  0.000000E+00  0.000000E+00  0.000000E+00  0.000000E+00  2.369818E+00 -9.563006E-02 -7.453449E-06 -2.367888E+00                                                                                                                                                                                                                                                                                                                                                                                                                                                                                              
  7.600000E+02  1.250000E+02 -4.725000E+03  2.990814E-06 -2.178292E-08 -6.673171E-12 -2.990735E-06  1.663039E-08 -1.212703E-10 -3.714920E-14 -1.662995E-08  0.000000E+00  0.000000E+00  0.000000E+00  0.000000E+00  0.000000E+00  0.000000E+00  0.000000E+00  0.000000E+00  2.345855E+00 -1.816084E-02 -5.614590E-06 -2.345784E+00                                                                                                                                                                                                                                                                                                                                                                                                                                                                                              
  7.800000E+02  1.250000E+02 -4.725000E+03  2.988017E-06  3.309187E-12 -6.307849E-12 -2.988017E-06  1.661902E-08  1.842529E-14 -3.512159E-14 -1.661902E-08  0.000000E+00  0.000000E+00  0.000000E+00  0.000000E+00  0.000000E+00  0.000000E+00  0.000000E+00  0.000000E+00  2.343471E+00  2.830906E-06 -5.309563E-06 -2.343471E+00                                                                                                                                                                                                                                                                                                                                                                                                                                                                                              
  8.000000E+02  1.250000E+02 -4.725000E+03  2.990806E-06  2.178882E-08 -5.930625E-12 -2.990726E-06  1.663034E-08  1.213032E-10 -3.301549E-14 -1.662990E-08  0.000000E+00  0.000000E+00  0.000000E+00  0.000000E+00  0.000000E+00  0.000000E+00  0.000000E+00  0.000000E+00  2.345823E+00  1.816585E-02 -4.989179E-06 -2.345753E+00                                                                                                                                                                                                                                                                                                                                                                                                                                                                                              
  9.350000E+02  1.250000E+02 -4.725000E+03  3.018749E-06  1.139088E-07 -3.348788E-12 -3.016599E-06  1.677277E-08  6.339520E-10 -1.863608E-14 -1.676078E-08  0.000000E+00  0.000000E+00  0.000000E+00  0.000000E+00  0.000000E+00  0.000000E+00  0.000000E+00  0.000000E+00  2.369817E+00  9.563298E-02 -2.817172E-06 -2.367886E+00                                                                                                                                                                                                                                                                                                                                                                                                                                                                                              
  1.185000E+03  1.250000E+02 -4.725000E+03  3.299307E-06  1.709195E-07 -1.296910E-12 -3.294876E-06  1.832631E-08  9.510944E-10 -7.215548E-15 -1.830162E-08  0.000000E+00  0.000000E+00  0.000000E+00  0.000000E+00  0.000000E+00  0.000000E+00  0.000000E+00  0.000000E+00  2.602180E+00  1.435899E-01 -1.092083E-06 -2.598215E+00                                                                                                                                                                                                                                                                                                                                                                                                                                                                                              