Title="TOUGHREACT V3.30-OMP flowvector.tec: Liq & Gas Fluxes (kg/s/m^2), Pore Velocities (m/s), & Heat Fluxes (J/s/m2)"                                                                                                                                                                                                                                                                                                                                                                                                                                                                                                                                                                                                                                                                                                         
Variables= "X(m)"     "Y(m)"      "Z(m)"     "FluxLiq"   "FluxLiq_X"   "FluxLiq_Y"   "FluxLiq_Z"   "PorVelLiq"  "PorVelLiqX"  "PorVelLiqY"  "PorVelLiqZ"     "FluxGas"   "FluxGas_X"   "FluxGas_Y"   "FluxGas_Z"   "PorVelGas"  "PorVelGasX"  "PorVelGasY"  "PorVelGasZ"    "HeatFlux"  "HeatFlux_X"  "HeatFlux_Y"  "HeatFlux_Z"                                                                                                                                                                                                                                                                                                                                                                                                                                                                                                
Zone T= "1.00000000E+06 sec" I=     9 J=    10 K=    23 F=Point
  1.250000E+02  1.250000E+02 -5.425000E+03  2.550000E-07 -2.452827E-07 -1.857340E-13  6.972382E-08  1.434417E-09 -1.379763E-09 -1.044726E-15  3.921821E-10  0.000000E+00  0.000000E+00  0.000000E+00  0.000000E+00  0.000000E+00  0.000000E+00  0.000000E+00  0.000000E+00  2.300223E-01 -2.173562E-01 -1.672846E-07  7.527637E-02                                                                                                                                                                                                                                                                                                                                                                                                                                                                                              
  3.750000E+02  1.250000E+02 -5.425000E+03  6.552526E-07 -6.534403E-07 -6.310516E-14  4.870030E-08  3.686013E-09 -3.675820E-09 -3.549573E-16  2.739281E-10  0.000000E+00  0.000000E+00  0.000000E+00  0.000000E+00  0.000000E+00  0.000000E+00  0.000000E+00  0.000000E+00  5.819045E-01 -5.791395E-01 -5.541862E-08  5.665938E-02                                                                                                                                                                                                                                                                                                                                                                                                                                                                                              
  6.250000E+02  1.250000E+02 -5.425000E+03  6.724001E-07 -6.723965E-07 -2.929116E-13 -2.185205E-09  3.782629E-09 -3.782609E-09 -1.647585E-15 -1.227891E-11  0.000000E+00  0.000000E+00  0.000000E+00  0.000000E+00  0.000000E+00  0.000000E+00  0.000000E+00  0.000000E+00  5.961269E-01 -5.960144E-01 -2.619600E-07  1.158320E-02                                                                                                                                                                                                                                                                                                                                                                                                                                                                                              
  7.600000E+02  1.250000E+02 -5.425000E+03  3.587939E-07 -3.578444E-07 -2.517178E-13 -2.608580E-08  2.018518E-09 -2.013187E-09 -1.416061E-15 -1.466018E-10  0.000000E+00  0.000000E+00  0.000000E+00  0.000000E+00  0.000000E+00  0.000000E+00  0.000000E+00  0.000000E+00  3.173023E-01 -3.171610E-01 -2.235245E-07 -9.470657E-03                                                                                                                                                                                                                                                                                                                                                                                                                                                                                              
  7.800000E+02  1.250000E+02 -5.425000E+03  2.734801E-08 -4.771620E-13 -2.303511E-13 -2.734801E-08  1.537119E-10 -2.684591E-15 -1.295979E-15 -1.537119E-10  0.000000E+00  0.000000E+00  0.000000E+00  0.000000E+00  0.000000E+00  0.000000E+00  0.000000E+00  0.000000E+00  1.058195E-02 -4.149392E-07 -2.057043E-07 -1.058195E-02                                                                                                                                                                                                                                                                                                                                                                                                                                                                                              
  8.000000E+02  1.250000E+02 -5.425000E+03  3.587934E-07  3.578439E-07 -1.926491E-13 -2.608570E-08  2.018514E-09  2.013184E-09 -1.083764E-15 -1.466013E-10  0.000000E+00  0.000000E+00  0.000000E+00  0.000000E+00  0.000000E+00  0.000000E+00  0.000000E+00  0.000000E+00  3.173018E-01  3.171605E-01 -1.731113E-07 -9.470572E-03                                                                                                                                                                                                                                                                                                                                                                                                                                                                                              
  9.350000E+02  1.250000E+02 -5.425000E+03  6.724004E-07  6.723969E-07  3.887696E-14 -2.184712E-09  3.782631E-09  3.782611E-09  2.186773E-16 -1.227613E-11  0.000000E+00  0.000000E+00  0.000000E+00  0.000000E+00  0.000000E+00  0.000000E+00  0.000000E+00  0.000000E+00  5.961272E-01  5.960147E-01  3.823080E-08  1.158364E-02                                                                                                                                                                                                                                                                                                                                                                                                                                                                                              
  1.185000E+03  1.250000E+02 -5.425000E+03  6.552528E-07  6.534405E-07 -7.827881E-14  4.870060E-08  3.686014E-09  3.675822E-09 -4.403069E-16  2.739298E-10  0.000000E+00  0.000000E+00  0.000000E+00  0.000000E+00  0.000000E+00  0.000000E+00  0.000000E+00  0.000000E+00  5.819047E-01  5.791397E-01 -6.948270E-08  5.665964E-02                                                                                                                                                                                                                                                                                                                                                                                                                                                                                              
  1.435000E+03  1.250000E+02 -5.425000E+03  2.550000E-07  2.452825E-07  1.885053E-13  6.972420E-08  1.434417E-09  1.379762E-09  1.060314E-15  3.921842E-10  0.000000E+00  0.000000E+00  0.000000E+00  0.000000E+00  0.000000E+00  0.000000E+00  0.000000E+00  0.000000E+00  2.300223E-01  2.173561E-01  1.683107E-07  7.527670E-02                                                                                                                                                                                                                                                                                                                                                                                                                                                                                              
  1.250000E+02  1.250000E+02 -5.225000E+03  2.908094E-07 -2.612747E-07  5.122455E-14  1.276935E-07  1.634135E-09 -1.468183E-09  2.878274E-16  7.175209E-10  0.000000E+00  0.000000E+00  0.000000E+00  0.000000E+00  0.000000E+00  0.000000E+00  0.000000E+00  0.000000E+00  2.810488E-01 -2.300686E-01  4.394258E-08  1.614213E-01                                                                                                                                                                                                                                                                                                                                                                                                                                                                                              
  3.750000E+02  1.250000E+02 -5.225000E+03  7.145578E-07 -7.087202E-07 -4.833112E-14  9.115052E-08  4.015440E-09 -3.982643E-09 -2.715699E-16  5.121678E-10  0.000000E+00  0.000000E+00  0.000000E+00  0.000000E+00  0.000000E+00  0.000000E+00  0.000000E+00  0.000000E+00  6.374114E-01 -6.241882E-01 -4.525189E-08  1.291604E-01                                                                                                                                                                                                                                                                                                                                                                                                                                                                                              
  6.250000E+02  1.250000E+02 -5.225000E+03  7.463346E-07 -7.462507E-07 -1.666503E-13 -1.119074E-08  4.194228E-09 -4.193758E-09 -9.364025E-16 -6.275974E-11  0.000000E+00  0.000000E+00  0.000000E+00  0.000000E+00  0.000000E+00  0.000000E+00  0.000000E+00  0.000000E+00  6.584875E-01 -6.573353E-01 -1.489354E-07  3.893738E-02                                                                                                                                                                                                                                                                                                                                                                                                                                                                                              
  7.600000E+02  1.250000E+02 -5.225000E+03  4.100279E-07 -4.047962E-07 -1.305582E-13 -6.529068E-08  2.304331E-09 -2.275014E-09 -7.337135E-16 -3.664071E-10  0.000000E+00  0.000000E+00  0.000000E+00  0.000000E+00  0.000000E+00  0.000000E+00  0.000000E+00  0.000000E+00  3.566257E-01 -3.565307E-01 -1.174358E-07 -8.229389E-03                                                                                                                                                                                                                                                                                                                                                                                                                                                                                              
  7.800000E+02  1.250000E+02 -5.225000E+03  6.814144E-08  5.284769E-13 -1.264233E-13 -6.814144E-08  3.824531E-10  2.970345E-15 -7.105519E-16 -3.824531E-10  0.000000E+00  0.000000E+00  0.000000E+00  0.000000E+00  0.000000E+00  0.000000E+00  0.000000E+00  0.000000E+00  1.071372E-02  4.387598E-07 -1.159993E-07 -1.071372E-02                                                                                                                                                                                                                                                                                                                                                                                                                                                                                              
  8.000000E+02  1.250000E+02 -5.225000E+03  4.100289E-07  4.047973E-07 -1.338591E-13 -6.529061E-08  2.304337E-09  2.275020E-09 -7.522640E-16 -3.664067E-10  0.000000E+00  0.000000E+00  0.000000E+00  0.000000E+00  0.000000E+00  0.000000E+00  0.000000E+00  0.000000E+00  3.566266E-01  3.565316E-01 -1.182109E-07 -8.229329E-03                                                                                                                                                                                                                                                                                                                                                                                                                                                                                              
  9.350000E+02  1.250000E+02 -5.225000E+03  7.463354E-07  7.462515E-07 -2.235729E-13 -1.119035E-08  4.194232E-09  4.193762E-09 -1.256249E-15 -6.275754E-11  0.000000E+00  0.000000E+00  0.000000E+00  0.000000E+00  0.000000E+00  0.000000E+00  0.000000E+00  0.000000E+00  6.584882E-01  6.573359E-01 -1.986816E-07  3.893773E-02                                                                                                                                                                                                                                                                                                                                                                                                                                                                                              
  1.185000E+03  1.250000E+02 -5.225000E+03  7.145579E-07  7.087204E-07 -2.639132E-13  9.115061E-08  4.015441E-09  3.982644E-09 -1.482913E-15  5.121683E-10  0.000000E+00  0.000000E+00  0.000000E+00  0.000000E+00  0.000000E+00  0.000000E+00  0.000000E+00  0.000000E+00  6.374115E-01  6.241883E-01 -2.348757E-07  1.291605E-01                                                                                                                                                                                                                                                                                                                                                                                                                                                                                              
  1.435000E+03  1.250000E+02 -5.225000E+03  2.908094E-07  2.612745E-07  5.242061E-14  1.276939E-07  1.634135E-09  1.468182E-09  2.945479E-16  7.175232E-10  0.000000E+00  0.000000E+00  0.000000E+00  0.000000E+00  0.000000E+00  0.000000E+00  0.000000E+00  0.000000E+00  2.810489E-01  2.300685E-01  4.481123E-08  1.614217E-01                                                                                                                                                                                                                                                                                                                                                                                                                                                                                              
  1.250000E+02  1.250000E+02 -4.975000E+03  2.774366E-07 -2.734842E-07  1.821946E-14 -4.666281E-08  1.552938E-09 -1.531272E-09  1.020059E-16 -2.584965E-10  0.000000E+00  0.000000E+00  0.000000E+00  0.000000E+00  0.000000E+00  0.000000E+00  0.000000E+00  0.000000E+00  2.420849E-01 -2.363761E-01  1.601303E-08  5.226317E-02                                                                                                                                                                                                                                                                                                                                                                                                                                                                                              
  3.750000E+02  1.250000E+02 -4.975000E+03  7.668800E-07 -7.665100E-07 -1.899843E-13 -2.381937E-08  4.293959E-09 -4.291943E-09 -1.063673E-15 -1.315370E-10  0.000000E+00  0.000000E+00  0.000000E+00  0.000000E+00  0.000000E+00  0.000000E+00  0.000000E+00  0.000000E+00  6.664270E-01 -6.626481E-01 -1.645184E-07  7.086911E-02                                                                                                                                                                                                                                                                                                                                                                                                                                                                                              
  6.250000E+02  1.250000E+02 -4.975000E+03  8.466922E-07 -8.442717E-07 -3.629701E-13 -6.397587E-08  4.741134E-09 -4.727657E-09 -2.032181E-15 -3.572208E-10  0.000000E+00  0.000000E+00  0.000000E+00  0.000000E+00  0.000000E+00  0.000000E+00  0.000000E+00  0.000000E+00  7.308531E-01 -7.300020E-01 -3.148083E-07  3.526148E-02                                                                                                                                                                                                                                                                                                                                                                                                                                                                                              
  7.600000E+02  1.250000E+02 -4.975000E+03  4.863295E-07 -4.760073E-07 -4.090280E-13 -9.966654E-08  2.723337E-09 -2.665712E-09 -2.290459E-15 -5.572623E-10  0.000000E+00  0.000000E+00  0.000000E+00  0.000000E+00  0.000000E+00  0.000000E+00  0.000000E+00  0.000000E+00  4.115790E-01 -4.115539E-01 -3.569303E-07  4.550038E-03                                                                                                                                                                                                                                                                                                                                                                                                                                                                                              
  7.800000E+02  1.250000E+02 -4.975000E+03  1.015751E-07  1.593535E-13 -4.087520E-13 -1.015751E-07  5.680377E-10  8.925594E-16 -2.289208E-15 -5.680377E-10  0.000000E+00  0.000000E+00  0.000000E+00  0.000000E+00  0.000000E+00  0.000000E+00  0.000000E+00  0.000000E+00  2.909833E-03  1.053551E-07 -3.534718E-07  2.909833E-03                                                                                                                                                                                                                                                                                                                                                                                                                                                                                              
  8.000000E+02  1.250000E+02 -4.975000E+03  4.863300E-07  4.760079E-07 -4.014487E-13 -9.966650E-08  2.723340E-09  2.665715E-09 -2.248017E-15 -5.572620E-10  0.000000E+00  0.000000E+00  0.000000E+00  0.000000E+00  0.000000E+00  0.000000E+00  0.000000E+00  0.000000E+00  4.115794E-01  4.115543E-01 -3.473112E-07  4.550075E-03                                                                                                                                                                                                                                                                                                                                                                                                                                                                                              
  9.350000E+02  1.250000E+02 -4.975000E+03  8.466927E-07  8.442722E-07 -4.039194E-13 -6.397547E-08  4.741137E-09  4.727660E-09 -2.261446E-15 -3.572186E-10  0.000000E+00  0.000000E+00  0.000000E+00  0.000000E+00  0.000000E+00  0.000000E+00  0.000000E+00  0.000000E+00  7.308536E-01  7.300024E-01 -3.506251E-07  3.526181E-02                                                                                                                                                                                                                                                                                                                                                                                                                                                                                              
  1.185000E+03  1.250000E+02 -4.975000E+03  7.668803E-07  7.665103E-07 -6.875896E-14 -2.381895E-08  4.293960E-09  4.291945E-09 -3.849636E-16 -1.315347E-10  0.000000E+00  0.000000E+00  0.000000E+00  0.000000E+00  0.000000E+00  0.000000E+00  0.000000E+00  0.000000E+00  6.664273E-01  6.626484E-01 -6.315964E-08  7.086945E-02                                                                                                                                                                                                                                                                                                                                                                                                                                                                                              
  1.435000E+03  1.250000E+02 -4.975000E+03  2.774366E-07  2.734844E-07 -7.363402E-14 -4.666224E-08  1.552938E-09  1.531273E-09 -4.122573E-16 -2.584934E-10  0.000000E+00  0.000000E+00  0.000000E+00  0.000000E+00  0.000000E+00  0.000000E+00  0.000000E+00  0.000000E+00  2.420851E-01  2.363762E-01 -6.393021E-08  5.226365E-02                                                                                                                                                                                                                                                                                                                                                                                                                                                                                              
  1.250000E+02  1.250000E+02 -4.725000E+03  2.537126E-06 -2.297669E-07 -2.283649E-13 -2.526701E-06  1.408299E-08 -1.279301E-09 -1.271403E-15 -1.402476E-08  0.000000E+00  0.000000E+00  0.000000E+00  0.000000E+00  0.000000E+00  0.000000E+00  0.000000E+00  0.000000E+00  1.958345E+00 -1.929926E-01 -1.918194E-07 -1.948812E+00                                                                                                                                                                                                                                                                                                                                                                                                                                                                                              
  3.750000E+02  1.250000E+02 -4.725000E+03  2.155248E-06 -7.018842E-07 -2.889194E-13 -2.037757E-06  1.196784E-08 -3.908233E-09 -1.608555E-15 -1.131171E-08  0.000000E+00  0.000000E+00  0.000000E+00  0.000000E+00  0.000000E+00  0.000000E+00  0.000000E+00  0.000000E+00  1.655872E+00 -5.896805E-01 -2.423915E-07 -1.547317E+00                                                                                                                                                                                                                                                                                                                                                                                                                                                                                              
  6.250000E+02  1.250000E+02 -4.725000E+03  1.376577E-06 -8.267601E-07 -4.405386E-13 -1.100650E-06  7.651759E-09 -4.604014E-09 -2.452793E-15 -6.111667E-09  0.000000E+00  0.000000E+00  0.000000E+00  0.000000E+00  0.000000E+00  0.000000E+00  0.000000E+00  0.000000E+00  1.043890E+00 -6.947141E-01 -3.704878E-07 -7.791532E-01                                                                                                                                                                                                                                                                                                                                                                                                                                                                                              
  7.600000E+02  1.250000E+02 -4.725000E+03  8.746375E-07 -4.812903E-07 -5.668261E-13 -7.303085E-07  4.864337E-09 -2.680486E-09 -3.156621E-15 -4.059158E-09  0.000000E+00  0.000000E+00  0.000000E+00  0.000000E+00  0.000000E+00  0.000000E+00  0.000000E+00  0.000000E+00  6.240923E-01 -4.043850E-01 -4.781176E-07 -4.753567E-01                                                                                                                                                                                                                                                                                                                                                                                                                                                                                              
  7.800000E+02  1.250000E+02 -4.725000E+03  7.104390E-07  1.036748E-12 -5.784780E-13 -7.104390E-07  3.949783E-09  5.774516E-15 -3.222017E-15 -3.949783E-09  0.000000E+00  0.000000E+00  0.000000E+00  0.000000E+00  0.000000E+00  0.000000E+00  0.000000E+00  0.000000E+00  4.590623E-01  8.757502E-07 -4.909229E-07 -4.590623E-01                                                                                                                                                                                                                                                                                                                                                                                                                                                                                              
  8.000000E+02  1.250000E+02 -4.725000E+03  8.746386E-07  4.812924E-07 -5.707861E-13 -7.303083E-07  4.864343E-09  2.680499E-09 -3.178674E-15 -4.059157E-09  0.000000E+00  0.000000E+00  0.000000E+00  0.000000E+00  0.000000E+00  0.000000E+00  0.000000E+00  0.000000E+00  6.240946E-01  4.043868E-01 -4.813640E-07 -4.753581E-01                                                                                                                                                                                                                                                                                                                                                                                                                                                                                              
  9.350000E+02  1.250000E+02 -4.725000E+03  1.376576E-06  8.267616E-07 -4.473089E-13 -1.100648E-06  7.651755E-09  4.604022E-09 -2.490488E-15 -6.111656E-09  0.000000E+00  0.000000E+00  0.000000E+00  0.000000E+00  0.000000E+00  0.000000E+00  0.000000E+00  0.000000E+00  1.043890E+00  6.947153E-01 -3.768244E-07 -7.791513E-01                                                                                                                                                                                                                                                                                                                                                                                                                                                                                              
  1.185000E+03  1.250000E+02 -4.725000E+03  2.155243E-06  7.018845E-07 -2.621180E-13 -2.037751E-06  1.196781E-08  3.908235E-09 -1.459339E-15 -1.131169E-08  0.000000E+00  0.000000E+00  0.000000E+00  0.000000E+00  0.000000E+00  0.000000E+00  0.000000E+00  0.000000E+00  1.655868E+00  5.896808E-01 -2.216878E-07 -1.547313E+00                                                                                                                                                                                                                                                                                                                                                                                                                                                                                              