Title="TOUGHREACT V3.30-OMP flowvector.tec: Liq & Gas Fluxes (kg/s/m^2), Pore Velocities (m/s), & Heat Fluxes (J/s/m2)"                                                                                                                                                                                                                                                                                                                                                                                                                                                                                                                                                                                                                                                                                                         
Variables= "X(m)"     "Y(m)"      "Z(m)"     "FluxLiq"   "FluxLiq_X"   "FluxLiq_Y"   "FluxLiq_Z"   "PorVelLiq"  "PorVelLiqX"  "PorVelLiqY"  "PorVelLiqZ"     "FluxGas"   "FluxGas_X"   "FluxGas_Y"   "FluxGas_Z"   "PorVelGas"  "PorVelGasX"  "PorVelGasY"  "PorVelGasZ"    "HeatFlux"  "HeatFlux_X"  "HeatFlux_Y"  "HeatFlux_Z"                                                                                                                                                                                                                                                                                                                                                                                                                                                                                                
Zone T= "3.08113000E+08 sec" I=     9 J=    10 K=    23 F=Point
  1.250000E+02  1.250000E+02 -5.425000E+03  3.338242E-07 -1.781969E-09 -6.731976E-10 -3.338188E-07  1.860575E-09 -9.945736E-12 -3.756706E-12 -1.860545E-09  0.000000E+00  0.000000E+00  0.000000E+00  0.000000E+00  0.000000E+00  0.000000E+00  0.000000E+00  0.000000E+00  2.818232E-01 -1.577456E-03 -6.020845E-04 -2.818182E-01                                                                                                                                                                                                                                                                                                                                                                                                                                                                                              
  3.750000E+02  1.250000E+02 -5.425000E+03  3.336758E-07 -3.837729E-09 -7.529686E-10 -3.336529E-07  1.860080E-09 -2.142274E-11 -4.202551E-12 -1.859952E-09  0.000000E+00  0.000000E+00  0.000000E+00  0.000000E+00  0.000000E+00  0.000000E+00  0.000000E+00  0.000000E+00  2.816850E-01 -3.393156E-03 -6.734188E-04 -2.816638E-01                                                                                                                                                                                                                                                                                                                                                                                                                                                                                              
  6.250000E+02  1.250000E+02 -5.425000E+03  3.334130E-07 -2.109030E-09 -7.955563E-10 -3.334054E-07  1.859187E-09 -1.177448E-11 -4.441464E-12 -1.859145E-09  0.000000E+00  0.000000E+00  0.000000E+00  0.000000E+00  0.000000E+00  0.000000E+00  0.000000E+00  0.000000E+00  2.814403E-01 -1.838836E-03 -7.115005E-04 -2.814334E-01                                                                                                                                                                                                                                                                                                                                                                                                                                                                                              
  7.600000E+02  1.250000E+02 -5.425000E+03  3.331379E-07  1.446849E-10 -7.279024E-10 -3.331371E-07  1.858234E-09  8.079712E-13 -4.064861E-12 -1.858229E-09  0.000000E+00  0.000000E+00  0.000000E+00  0.000000E+00  0.000000E+00  0.000000E+00  0.000000E+00  0.000000E+00  2.811915E-01  1.648656E-04 -6.509906E-04 -2.811907E-01                                                                                                                                                                                                                                                                                                                                                                                                                                                                                              
  7.800000E+02  1.250000E+02 -5.425000E+03  3.330232E-07  6.702000E-10 -7.169887E-10 -3.330218E-07  1.857841E-09  3.742937E-12 -4.004378E-12 -1.857833E-09  0.000000E+00  0.000000E+00  0.000000E+00  0.000000E+00  0.000000E+00  0.000000E+00  0.000000E+00  0.000000E+00  2.810893E-01  5.993849E-04 -6.412300E-04 -2.810880E-01                                                                                                                                                                                                                                                                                                                                                                                                                                                                                              
  8.000000E+02  1.250000E+02 -5.425000E+03  3.331383E-07  1.193868E-09 -7.058393E-10 -3.331354E-07  1.858236E-09  6.667285E-12 -3.941654E-12 -1.858220E-09  0.000000E+00  0.000000E+00  0.000000E+00  0.000000E+00  0.000000E+00  0.000000E+00  0.000000E+00  0.000000E+00  2.811917E-01  1.032249E-03 -6.312588E-04 -2.811891E-01                                                                                                                                                                                                                                                                                                                                                                                                                                                                                              
  9.350000E+02  1.250000E+02 -5.425000E+03  3.334092E-07  3.268422E-09 -6.253257E-10 -3.333926E-07  1.859167E-09  1.824821E-11 -3.491095E-12 -1.859074E-09  0.000000E+00  0.000000E+00  0.000000E+00  0.000000E+00  0.000000E+00  0.000000E+00  0.000000E+00  0.000000E+00  2.814372E-01  2.875734E-03 -5.592525E-04 -2.814219E-01                                                                                                                                                                                                                                                                                                                                                                                                                                                                                              
  1.185000E+03  1.250000E+02 -5.425000E+03  3.336960E-07  4.560989E-09 -4.430839E-10 -3.336645E-07  1.860194E-09  2.546025E-11 -2.472990E-12 -1.860018E-09  0.000000E+00  0.000000E+00  0.000000E+00  0.000000E+00  0.000000E+00  0.000000E+00  0.000000E+00  0.000000E+00  2.817032E-01  4.040009E-03 -3.962745E-04 -2.816740E-01                                                                                                                                                                                                                                                                                                                                                                                                                                                                                              
  1.435000E+03  1.250000E+02 -5.425000E+03  3.338662E-07  2.014189E-09 -3.320819E-10 -3.338600E-07  1.860810E-09  1.124184E-11 -1.853148E-12 -1.860775E-09  0.000000E+00  0.000000E+00  0.000000E+00  0.000000E+00  0.000000E+00  0.000000E+00  0.000000E+00  0.000000E+00  2.818603E-01  1.785142E-03 -2.970007E-04 -2.818545E-01                                                                                                                                                                                                                                                                                                                                                                                                                                                                                              
  1.250000E+02  1.250000E+02 -5.225000E+03  1.230798E-06 -1.775591E-09 -7.193902E-10 -1.230796E-06  6.845289E-09 -9.896623E-12 -4.008949E-12 -6.845281E-09  0.000000E+00  0.000000E+00  0.000000E+00  0.000000E+00  0.000000E+00  0.000000E+00  0.000000E+00  0.000000E+00  1.029394E+00 -1.557759E-03 -6.392003E-04 -1.029392E+00                                                                                                                                                                                                                                                                                                                                                                                                                                                                                              
  3.750000E+02  1.250000E+02 -5.225000E+03  1.229999E-06 -3.850426E-09 -8.436814E-10 -1.229992E-06  6.842108E-09 -2.146471E-11 -4.702424E-12 -6.842072E-09  0.000000E+00  0.000000E+00  0.000000E+00  0.000000E+00  0.000000E+00  0.000000E+00  0.000000E+00  0.000000E+00  1.028663E+00 -3.372820E-03 -7.496216E-04 -1.028657E+00                                                                                                                                                                                                                                                                                                                                                                                                                                                                                              
  6.250000E+02  1.250000E+02 -5.225000E+03  1.228822E-06 -2.136133E-09 -9.342085E-10 -1.228820E-06  6.837846E-09 -1.190996E-11 -5.208598E-12 -6.837834E-09  0.000000E+00  0.000000E+00  0.000000E+00  0.000000E+00  0.000000E+00  0.000000E+00  0.000000E+00  0.000000E+00  1.027585E+00 -1.841617E-03 -8.300323E-04 -1.027583E+00                                                                                                                                                                                                                                                                                                                                                                                                                                                                                              
  7.600000E+02  1.250000E+02 -5.225000E+03  1.227697E-06  1.447701E-10 -8.429419E-10 -1.227697E-06  6.833998E-09  8.074048E-13 -4.701216E-12 -6.833997E-09  0.000000E+00  0.000000E+00  0.000000E+00  0.000000E+00  0.000000E+00  0.000000E+00  0.000000E+00  0.000000E+00  1.026583E+00  1.685760E-04 -7.489421E-04 -1.026583E+00                                                                                                                                                                                                                                                                                                                                                                                                                                                                                              
  7.800000E+02  1.250000E+02 -5.225000E+03  1.227212E-06  6.847542E-10 -8.281400E-10 -1.227211E-06  6.832379E-09  3.819336E-12 -4.619280E-12 -6.832376E-09  0.000000E+00  0.000000E+00  0.000000E+00  0.000000E+00  0.000000E+00  0.000000E+00  0.000000E+00  0.000000E+00  1.026157E+00  6.084020E-04 -7.357912E-04 -1.026157E+00                                                                                                                                                                                                                                                                                                                                                                                                                                                                                              
  8.000000E+02  1.250000E+02 -5.225000E+03  1.227695E-06  1.222524E-09 -8.129397E-10 -1.227694E-06  6.833985E-09  6.818566E-12 -4.533890E-12 -6.833980E-09  0.000000E+00  0.000000E+00  0.000000E+00  0.000000E+00  0.000000E+00  0.000000E+00  0.000000E+00  0.000000E+00  1.026581E+00  1.046265E-03 -7.222866E-04 -1.026580E+00                                                                                                                                                                                                                                                                                                                                                                                                                                                                                              
  9.350000E+02  1.250000E+02 -5.225000E+03  1.228802E-06  3.288509E-09 -7.029961E-10 -1.228798E-06  6.837739E-09  1.833613E-11 -3.919494E-12 -6.837713E-09  0.000000E+00  0.000000E+00  0.000000E+00  0.000000E+00  0.000000E+00  0.000000E+00  0.000000E+00  0.000000E+00  1.027567E+00  2.865521E-03 -6.246126E-04 -1.027563E+00                                                                                                                                                                                                                                                                                                                                                                                                                                                                                              
  1.185000E+03  1.250000E+02 -5.225000E+03  1.230103E-06  4.528122E-09 -4.711786E-10 -1.230095E-06  6.842693E-09  2.524281E-11 -2.626208E-12 -6.842646E-09  0.000000E+00  0.000000E+00  0.000000E+00  0.000000E+00  0.000000E+00  0.000000E+00  0.000000E+00  0.000000E+00  1.028754E+00  3.974981E-03 -4.186549E-04 -1.028746E+00                                                                                                                                                                                                                                                                                                                                                                                                                                                                                              
  1.435000E+03  1.250000E+02 -5.225000E+03  1.231015E-06  1.983451E-09 -3.379800E-10 -1.231014E-06  6.846501E-09  1.105518E-11 -1.883464E-12 -6.846492E-09  0.000000E+00  0.000000E+00  0.000000E+00  0.000000E+00  0.000000E+00  0.000000E+00  0.000000E+00  0.000000E+00  1.029583E+00  1.742456E-03 -3.003093E-04 -1.029582E+00                                                                                                                                                                                                                                                                                                                                                                                                                                                                                              
  1.250000E+02  1.250000E+02 -4.975000E+03  2.349732E-06 -1.595681E-09 -7.777563E-10 -2.349731E-06  1.301546E-08 -8.856918E-12 -4.316166E-12 -1.301546E-08  0.000000E+00  0.000000E+00  0.000000E+00  0.000000E+00  0.000000E+00  0.000000E+00  0.000000E+00  0.000000E+00  1.927559E+00 -1.360535E-03 -6.789051E-04 -1.927559E+00                                                                                                                                                                                                                                                                                                                                                                                                                                                                                              
  3.750000E+02  1.250000E+02 -4.975000E+03  2.347637E-06 -3.569510E-09 -1.049508E-09 -2.347635E-06  1.300621E-08 -1.981653E-11 -5.825342E-12 -1.300620E-08  0.000000E+00  0.000000E+00  0.000000E+00  0.000000E+00  0.000000E+00  0.000000E+00  0.000000E+00  0.000000E+00  1.925682E+00 -3.035075E-03 -9.160871E-04 -1.925679E+00                                                                                                                                                                                                                                                                                                                                                                                                                                                                                              
  6.250000E+02  1.250000E+02 -4.975000E+03  2.344418E-06 -2.024729E-09 -1.343087E-09 -2.344417E-06  1.299314E-08 -1.124234E-11 -7.457417E-12 -1.299313E-08  0.000000E+00  0.000000E+00  0.000000E+00  0.000000E+00  0.000000E+00  0.000000E+00  0.000000E+00  0.000000E+00  1.922775E+00 -1.683637E-03 -1.172305E-03 -1.922774E+00                                                                                                                                                                                                                                                                                                                                                                                                                                                                                              
  7.600000E+02  1.250000E+02 -4.975000E+03  2.341983E-06  1.397767E-10 -1.161893E-09 -2.341983E-06  1.298506E-08  7.763875E-13 -6.453719E-12 -1.298506E-08  0.000000E+00  0.000000E+00  0.000000E+00  0.000000E+00  0.000000E+00  0.000000E+00  0.000000E+00  0.000000E+00  1.920631E+00  1.734634E-04 -1.014146E-03 -1.920630E+00                                                                                                                                                                                                                                                                                                                                                                                                                                                                                              
  7.800000E+02  1.250000E+02 -4.975000E+03  2.340946E-06  6.924924E-10 -1.132280E-09 -2.340946E-06  1.298159E-08  3.846909E-12 -6.290289E-12 -1.298158E-08  0.000000E+00  0.000000E+00  0.000000E+00  0.000000E+00  0.000000E+00  0.000000E+00  0.000000E+00  0.000000E+00  1.919738E+00  6.044827E-04 -9.882958E-04 -1.919738E+00                                                                                                                                                                                                                                                                                                                                                                                                                                                                                              
  8.000000E+02  1.250000E+02 -4.975000E+03  2.341996E-06  1.241773E-09 -1.101597E-09 -2.341996E-06  1.298513E-08  6.897884E-12 -6.118805E-12 -1.298513E-08  0.000000E+00  0.000000E+00  0.000000E+00  0.000000E+00  0.000000E+00  0.000000E+00  0.000000E+00  0.000000E+00  1.920641E+00  1.032460E-03 -9.615131E-04 -1.920640E+00                                                                                                                                                                                                                                                                                                                                                                                                                                                                                              
  9.350000E+02  1.250000E+02 -4.975000E+03  2.344523E-06  3.077981E-09 -8.796619E-10 -2.344521E-06  1.299372E-08  1.709189E-11 -4.884276E-12 -1.299371E-08  0.000000E+00  0.000000E+00  0.000000E+00  0.000000E+00  0.000000E+00  0.000000E+00  0.000000E+00  0.000000E+00  1.922864E+00  2.602983E-03 -7.678165E-04 -1.922862E+00                                                                                                                                                                                                                                                                                                                                                                                                                                                                                              
  1.185000E+03  1.250000E+02 -4.975000E+03  2.348094E-06  4.054085E-09 -5.044613E-10 -2.348090E-06  1.300874E-08  2.250690E-11 -2.800036E-12 -1.300872E-08  0.000000E+00  0.000000E+00  0.000000E+00  0.000000E+00  0.000000E+00  0.000000E+00  0.000000E+00  0.000000E+00  1.926070E+00  3.458065E-03 -4.403418E-04 -1.926067E+00                                                                                                                                                                                                                                                                                                                                                                                                                                                                                              
  1.435000E+03  1.250000E+02 -4.975000E+03  2.350391E-06  1.716061E-09 -3.191777E-10 -2.350390E-06  1.301911E-08  9.525096E-12 -1.771281E-12 -1.301911E-08  0.000000E+00  0.000000E+00  0.000000E+00  0.000000E+00  0.000000E+00  0.000000E+00  0.000000E+00  0.000000E+00  1.928122E+00  1.465619E-03 -2.786139E-04 -1.928121E+00                                                                                                                                                                                                                                                                                                                                                                                                                                                                                              
  1.250000E+02  1.250000E+02 -4.725000E+03  3.444198E-06 -8.934276E-10 -4.914439E-10 -3.444198E-06  1.897428E-08 -4.927442E-12 -2.709931E-12 -1.897428E-08  0.000000E+00  0.000000E+00  0.000000E+00  0.000000E+00  0.000000E+00  0.000000E+00  0.000000E+00  0.000000E+00  2.761658E+00 -7.013504E-04 -4.176105E-04 -2.761658E+00                                                                                                                                                                                                                                                                                                                                                                                                                                                                                              
  3.750000E+02  1.250000E+02 -4.725000E+03  3.439920E-06 -2.082372E-09 -8.686887E-10 -3.439919E-06  1.895418E-08 -1.148721E-11 -4.790985E-12 -1.895417E-08  0.000000E+00  0.000000E+00  0.000000E+00  0.000000E+00  0.000000E+00  0.000000E+00  0.000000E+00  0.000000E+00  2.757913E+00 -1.610587E-03 -7.384853E-04 -2.757912E+00                                                                                                                                                                                                                                                                                                                                                                                                                                                                                              
  6.250000E+02  1.250000E+02 -4.725000E+03  3.433062E-06 -1.459172E-09 -1.560994E-09 -3.433061E-06  1.892414E-08 -8.051358E-12 -8.612434E-12 -1.892413E-08  0.000000E+00  0.000000E+00  0.000000E+00  0.000000E+00  0.000000E+00  0.000000E+00  0.000000E+00  0.000000E+00  2.751878E+00 -1.063873E-03 -1.334363E-03 -2.751877E+00                                                                                                                                                                                                                                                                                                                                                                                                                                                                                              
  7.600000E+02  1.250000E+02 -4.725000E+03  3.428657E-06 -1.619820E-10 -1.236805E-09 -3.428657E-06  1.891156E-08 -8.941013E-13 -6.826840E-12 -1.891156E-08  0.000000E+00  0.000000E+00  0.000000E+00  0.000000E+00  0.000000E+00  0.000000E+00  0.000000E+00  0.000000E+00  2.748317E+00 -3.147937E-05 -1.056222E-03 -2.748316E+00                                                                                                                                                                                                                                                                                                                                                                                                                                                                                              
  7.800000E+02  1.250000E+02 -4.725000E+03  3.427084E-06  4.972031E-10 -1.182915E-09 -3.427084E-06  1.890862E-08  2.744816E-12 -6.530551E-12 -1.890862E-08  0.000000E+00  0.000000E+00  0.000000E+00  0.000000E+00  0.000000E+00  0.000000E+00  0.000000E+00  0.000000E+00  2.746954E+00  4.304523E-04 -1.009082E-03 -2.746953E+00                                                                                                                                                                                                                                                                                                                                                                                                                                                                                              
  8.000000E+02  1.250000E+02 -4.725000E+03  3.428718E-06  1.150357E-09 -1.126099E-09 -3.428717E-06  1.891187E-08  6.350065E-12 -6.215772E-12 -1.891187E-08  0.000000E+00  0.000000E+00  0.000000E+00  0.000000E+00  0.000000E+00  0.000000E+00  0.000000E+00  0.000000E+00  2.748267E+00  8.786868E-04 -9.595259E-04 -2.748267E+00                                                                                                                                                                                                                                                                                                                                                                                                                                                                                              
  9.350000E+02  1.250000E+02 -4.725000E+03  3.433737E-06  2.056463E-09 -7.235697E-10 -3.433736E-06  1.892783E-08  1.134799E-11 -3.992133E-12 -1.892782E-08  0.000000E+00  0.000000E+00  0.000000E+00  0.000000E+00  0.000000E+00  0.000000E+00  0.000000E+00  0.000000E+00  2.752333E+00  1.570508E-03 -6.148852E-04 -2.752332E+00                                                                                                                                                                                                                                                                                                                                                                                                                                                                                              
  1.185000E+03  1.250000E+02 -4.725000E+03  3.441081E-06  2.188193E-09 -3.165417E-10 -3.441080E-06  1.896057E-08  1.207106E-11 -1.745789E-12 -1.896057E-08  0.000000E+00  0.000000E+00  0.000000E+00  0.000000E+00  0.000000E+00  0.000000E+00  0.000000E+00  0.000000E+00  2.758872E+00  1.700177E-03 -2.689322E-04 -2.758872E+00                                                                                                                                                                                                                                                                                                                                                                                                                                                                                              