Title="TREACTMECH V1.0-OMP-MPI stress-strain.tec: Total Stresses (Pa), Strains"                                                                                                                                                                                                                                                                                                                                                                                                                                                                                                                                                                                                                                                                                                                                                 
Variables= "X(m)"     "Y(m)"      "Z(m)"    "Sigma_xx"    "Sigma_yy"    "Sigma_zz"    "Sigma_yz"    "Sigma_xz"    "Sigma_xy"   "Strain_xx"   "Strain_yy"   "Strain_zz"   "Strain_yz"   "Strain_xz"   "Strain_xy"  "Vol_Strain"   "E_fail_xx"   "E_fail_yy"   "E_fail_zz"  "E_fail_yz2"  "E_fail_xz2"  "E_fail_xy2"  "E_fail_vol"                                                                                                                                                                                                                                                                                                                                                                                                                                                                                                
Zone T= "3.08113000E+08 sec" I=     9 J=    10 K=    23 F=Point
  1.250000E+02  1.250000E+02 -5.425000E+03 -1.312717E+08 -1.318715E+08 -1.267759E+08 -1.912729E+01  5.301553E+03 -1.263731E+01  5.190620E-05 -8.006965E-08  4.415411E-04 -4.451519E-09  1.233837E-06 -2.190466E-09  4.933673E-04  0.000000E+00  0.000000E+00  0.000000E+00  0.000000E+00  0.000000E+00  0.000000E+00  0.000000E+00                                                                                                                                                                                                                                                                                                                                                                                                                                                                                              
  3.750000E+02  1.250000E+02 -5.425000E+03 -1.313058E+08 -1.314557E+08 -1.263185E+08 -2.396709E+01  1.498891E+04 -1.160494E+01  1.291478E-05 -8.269376E-08  4.451483E-04 -5.577893E-09  3.488388E-06 -2.011523E-09  4.579804E-04  0.000000E+00  0.000000E+00  0.000000E+00  0.000000E+00  0.000000E+00  0.000000E+00  0.000000E+00                                                                                                                                                                                                                                                                                                                                                                                                                                                                                              
  6.250000E+02  1.250000E+02 -5.425000E+03 -1.313620E+08 -1.307781E+08 -1.255840E+08 -2.720830E+01  1.401169E+04  3.782980E+01 -5.068302E-05 -8.072742E-08  4.500759E-04 -6.332223E-09  3.260959E-06  6.557165E-09  3.993121E-04  0.000000E+00  0.000000E+00  0.000000E+00  0.000000E+00  0.000000E+00  0.000000E+00  0.000000E+00                                                                                                                                                                                                                                                                                                                                                                                                                                                                                              
  7.600000E+02  1.250000E+02 -5.425000E+03 -1.313995E+08 -1.301409E+08 -1.249190E+08 -2.682838E+01  7.800229E+03  7.403839E+01 -1.091586E-04 -7.688548E-08  4.524843E-04 -6.243804E-09  1.815358E-06  1.283332E-08  3.432487E-04  0.000000E+00  0.000000E+00  0.000000E+00  0.000000E+00  0.000000E+00  0.000000E+00  0.000000E+00                                                                                                                                                                                                                                                                                                                                                                                                                                                                                              
  7.800000E+02  1.250000E+02 -5.425000E+03 -1.314135E+08 -1.298814E+08 -1.246582E+08 -2.623198E+01  6.947539E-01  7.809697E+01 -1.328558E-04 -7.579678E-08  4.526024E-04 -6.105005E-09  1.616910E-10  1.353681E-08  3.196709E-04  0.000000E+00  0.000000E+00  0.000000E+00  0.000000E+00  0.000000E+00  0.000000E+00  0.000000E+00                                                                                                                                                                                                                                                                                                                                                                                                                                                                                              
  8.000000E+02  1.250000E+02 -5.425000E+03 -1.313995E+08 -1.301408E+08 -1.249190E+08 -2.568379E+01 -7.798468E+03  8.138645E+01 -1.091629E-04 -7.466369E-08  4.524841E-04 -5.977423E-09 -1.814948E-06  1.410698E-08  3.432466E-04  0.000000E+00  0.000000E+00  0.000000E+00  0.000000E+00  0.000000E+00  0.000000E+00  0.000000E+00                                                                                                                                                                                                                                                                                                                                                                                                                                                                                              
  9.350000E+02  1.250000E+02 -5.425000E+03 -1.313622E+08 -1.307777E+08 -1.255838E+08 -2.118030E+01 -1.401252E+04  9.612266E+01 -5.071454E-05 -6.543656E-08  4.500747E-04 -4.929319E-09 -3.261153E-06  1.666126E-08  3.992948E-04  0.000000E+00  0.000000E+00  0.000000E+00  0.000000E+00  0.000000E+00  0.000000E+00  0.000000E+00                                                                                                                                                                                                                                                                                                                                                                                                                                                                                              
  1.185000E+03  1.250000E+02 -5.425000E+03 -1.313061E+08 -1.314549E+08 -1.263181E+08 -1.354324E+01 -1.499564E+04  8.787211E+01  1.284721E-05 -4.897428E-08  4.451441E-04 -3.151937E-09 -3.489955E-06  1.523117E-08  4.579423E-04  0.000000E+00  0.000000E+00  0.000000E+00  0.000000E+00  0.000000E+00  0.000000E+00  0.000000E+00                                                                                                                                                                                                                                                                                                                                                                                                                                                                                              
  1.435000E+03  1.250000E+02 -5.425000E+03 -1.312721E+08 -1.318705E+08 -1.267755E+08 -8.979717E+00 -5.305443E+03  3.457119E+01  5.182355E-05 -3.812313E-08  4.415338E-04 -2.089862E-09 -1.234743E-06  5.992339E-09  4.933192E-04  0.000000E+00  0.000000E+00  0.000000E+00  0.000000E+00  0.000000E+00  0.000000E+00  0.000000E+00                                                                                                                                                                                                                                                                                                                                                                                                                                                                                              
  1.250000E+02  1.250000E+02 -5.225000E+03 -1.275151E+08 -1.281350E+08 -1.228304E+08 -5.597976E+01  1.249410E+04 -1.986139E+01  5.363402E-05 -9.018929E-08  4.596422E-04 -1.302825E-08  2.907768E-06 -3.442640E-09  5.131861E-04  0.000000E+00  0.000000E+00  0.000000E+00  0.000000E+00  0.000000E+00  0.000000E+00  0.000000E+00                                                                                                                                                                                                                                                                                                                                                                                                                                                                                              
  3.750000E+02  1.250000E+02 -5.225000E+03 -1.275222E+08 -1.276868E+08 -1.223690E+08 -7.115395E+01  3.205142E+04 -2.478985E+01  1.416462E-05 -9.442131E-08  4.607823E-04 -1.655975E-08  7.459369E-06 -4.296907E-09  4.748525E-04  0.000000E+00  0.000000E+00  0.000000E+00  0.000000E+00  0.000000E+00  0.000000E+00  0.000000E+00                                                                                                                                                                                                                                                                                                                                                                                                                                                                                              
  6.250000E+02  1.250000E+02 -5.225000E+03 -1.275313E+08 -1.269266E+08 -1.215986E+08 -8.124337E+01  2.538884E+04  3.928328E+01 -5.250149E-05 -9.338488E-08  4.616707E-04 -1.890788E-08  5.908778E-06  6.809102E-09  4.090758E-04  0.000000E+00  0.000000E+00  0.000000E+00  0.000000E+00  0.000000E+00  0.000000E+00  0.000000E+00                                                                                                                                                                                                                                                                                                                                                                                                                                                                                              
  7.600000E+02  1.250000E+02 -5.225000E+03 -1.275421E+08 -1.261846E+08 -1.208539E+08 -8.072560E+01  1.660597E+04  8.759272E+01 -1.177354E-04 -8.932500E-08  4.619079E-04 -1.878738E-08  3.864729E-06  1.518274E-08  3.440832E-04  0.000000E+00  0.000000E+00  0.000000E+00  0.000000E+00  0.000000E+00  0.000000E+00  0.000000E+00                                                                                                                                                                                                                                                                                                                                                                                                                                                                                              
  7.800000E+02  1.250000E+02 -5.225000E+03 -1.275357E+08 -1.258674E+08 -1.205357E+08 -7.947615E+01 -5.967754E+00  9.322333E+01 -1.446766E-04 -8.806207E-08  4.619892E-04 -1.849659E-08 -1.388883E-09  1.615871E-08  3.172245E-04  0.000000E+00  0.000000E+00  0.000000E+00  0.000000E+00  0.000000E+00  0.000000E+00  0.000000E+00                                                                                                                                                                                                                                                                                                                                                                                                                                                                                              
  8.000000E+02  1.250000E+02 -5.225000E+03 -1.275421E+08 -1.261846E+08 -1.208539E+08 -7.809594E+01 -1.661737E+04  9.783984E+01 -1.177400E-04 -8.673548E-08  4.619076E-04 -1.817537E-08 -3.867384E-06  1.695890E-08  3.440809E-04  0.000000E+00  0.000000E+00  0.000000E+00  0.000000E+00  0.000000E+00  0.000000E+00  0.000000E+00                                                                                                                                                                                                                                                                                                                                                                                                                                                                                              
  9.350000E+02  1.250000E+02 -5.225000E+03 -1.275315E+08 -1.269262E+08 -1.215984E+08 -6.419425E+01 -2.540799E+04  1.173338E+02 -5.253450E-05 -7.561757E-08  4.616679E-04 -1.494001E-08 -5.913236E-06  2.033786E-08  4.090578E-04  0.000000E+00  0.000000E+00  0.000000E+00  0.000000E+00  0.000000E+00  0.000000E+00  0.000000E+00                                                                                                                                                                                                                                                                                                                                                                                                                                                                                              
  1.185000E+03  1.250000E+02 -5.225000E+03 -1.275226E+08 -1.276859E+08 -1.223686E+08 -4.058959E+01 -3.208435E+04  1.061746E+02  1.409659E-05 -5.588596E-08  4.607745E-04 -9.446469E-09 -7.467034E-06  1.840360E-08  4.748152E-04  0.000000E+00  0.000000E+00  0.000000E+00  0.000000E+00  0.000000E+00  0.000000E+00  0.000000E+00                                                                                                                                                                                                                                                                                                                                                                                                                                                                                              
  1.435000E+03  1.250000E+02 -5.225000E+03 -1.275155E+08 -1.281339E+08 -1.228300E+08 -2.647839E+01 -1.251082E+04  4.140265E+01  5.355292E-05 -4.299803E-08  4.596305E-04 -6.162350E-09 -2.911661E-06  7.176460E-09  5.131404E-04  0.000000E+00  0.000000E+00  0.000000E+00  0.000000E+00  0.000000E+00  0.000000E+00  0.000000E+00                                                                                                                                                                                                                                                                                                                                                                                                                                                                                              
  1.250000E+02  1.250000E+02 -4.975000E+03 -1.230646E+08 -1.237091E+08 -1.179012E+08 -4.226144E+01  1.274748E+04 -3.499391E+01  5.574850E-05 -1.051836E-07  5.032481E-04 -9.835560E-09  2.966739E-06 -6.065611E-09  5.588915E-04  0.000000E+00  0.000000E+00  0.000000E+00  0.000000E+00  0.000000E+00  0.000000E+00  0.000000E+00                                                                                                                                                                                                                                                                                                                                                                                                                                                                                              
  3.750000E+02  1.250000E+02 -4.975000E+03 -1.230495E+08 -1.232355E+08 -1.174293E+08 -6.052823E+01  2.908779E+04 -5.096559E+01  1.600785E-05 -1.121698E-07  5.030877E-04 -1.408682E-08  6.769640E-06 -8.834035E-09  5.189833E-04  0.000000E+00  0.000000E+00  0.000000E+00  0.000000E+00  0.000000E+00  0.000000E+00  0.000000E+00                                                                                                                                                                                                                                                                                                                                                                                                                                                                                              
  6.250000E+02  1.250000E+02 -4.975000E+03 -1.230222E+08 -1.223899E+08 -1.166156E+08 -7.406763E+01  1.359657E+04  3.926886E+01 -5.491408E-05 -1.126830E-07  5.003233E-04 -1.723786E-08  3.164347E-06  6.806603E-09  4.452965E-04  0.000000E+00  0.000000E+00  0.000000E+00  0.000000E+00  0.000000E+00  0.000000E+00  0.000000E+00                                                                                                                                                                                                                                                                                                                                                                                                                                                                                              
  7.600000E+02  1.250000E+02 -4.975000E+03 -1.229902E+08 -1.215137E+08 -1.157725E+08 -7.523384E+01 -3.805013E+03  1.091173E+02 -1.280787E-04 -1.083789E-07  4.974592E-04 -1.750927E-08 -8.855458E-07  1.891367E-08  3.692721E-04  0.000000E+00  0.000000E+00  0.000000E+00  0.000000E+00  0.000000E+00  0.000000E+00  0.000000E+00                                                                                                                                                                                                                                                                                                                                                                                                                                                                                              
  7.800000E+02  1.250000E+02 -4.975000E+03 -1.230287E+08 -1.211527E+08 -1.154170E+08 -7.401883E+01 -4.756822E+01  1.164428E+02 -1.626912E-04 -1.069068E-07  4.969886E-04 -1.722650E-08 -1.107061E-08  2.018342E-08  3.341904E-04  0.000000E+00  0.000000E+00  0.000000E+00  0.000000E+00  0.000000E+00  0.000000E+00  0.000000E+00                                                                                                                                                                                                                                                                                                                                                                                                                                                                                              
  8.000000E+02  1.250000E+02 -4.975000E+03 -1.229903E+08 -1.215136E+08 -1.157725E+08 -7.252109E+01  3.711537E+03  1.249055E+02 -1.280834E-04 -1.053408E-07  4.974584E-04 -1.687793E-08  8.637909E-07  2.165029E-08  3.692697E-04  0.000000E+00  0.000000E+00  0.000000E+00  0.000000E+00  0.000000E+00  0.000000E+00  0.000000E+00                                                                                                                                                                                                                                                                                                                                                                                                                                                                                              
  9.350000E+02  1.250000E+02 -4.975000E+03 -1.230224E+08 -1.223895E+08 -1.166155E+08 -5.935111E+01 -1.369515E+04  1.537036E+02 -5.494910E-05 -9.138256E-08  5.003178E-04 -1.381286E-08 -3.187292E-06  2.664196E-08  4.452773E-04  0.000000E+00  0.000000E+00  0.000000E+00  0.000000E+00  0.000000E+00  0.000000E+00  0.000000E+00                                                                                                                                                                                                                                                                                                                                                                                                                                                                                              
  1.185000E+03  1.250000E+02 -4.975000E+03 -1.230499E+08 -1.232346E+08 -1.174291E+08 -3.654678E+01 -2.918316E+04  1.387302E+02  1.594169E-05 -6.646647E-08  5.030749E-04 -8.505582E-09 -6.791835E-06  2.404657E-08  5.189501E-04  0.000000E+00  0.000000E+00  0.000000E+00  0.000000E+00  0.000000E+00  0.000000E+00  0.000000E+00                                                                                                                                                                                                                                                                                                                                                                                                                                                                                              
  1.435000E+03  1.250000E+02 -4.975000E+03 -1.230651E+08 -1.237080E+08 -1.179009E+08 -2.267097E+01 -1.278663E+04  5.303961E+01  5.567340E-05 -5.023471E-08  5.032316E-04 -5.276244E-09 -2.975849E-06  9.193533E-09  5.588548E-04  0.000000E+00  0.000000E+00  0.000000E+00  0.000000E+00  0.000000E+00  0.000000E+00  0.000000E+00                                                                                                                                                                                                                                                                                                                                                                                                                                                                                              
  1.250000E+02  1.250000E+02 -4.725000E+03 -1.189586E+08 -1.195722E+08 -1.129541E+08  3.248828E+01 -4.079437E+03 -4.437098E+01  5.307381E-05 -1.052798E-07  5.734642E-04  7.561040E-09 -9.494129E-07 -7.690969E-09  6.264327E-04  0.000000E+00  0.000000E+00  0.000000E+00  0.000000E+00  0.000000E+00  0.000000E+00  0.000000E+00                                                                                                                                                                                                                                                                                                                                                                                                                                                                                              
  3.750000E+02  1.250000E+02 -4.725000E+03 -1.188861E+08 -1.190767E+08 -1.124678E+08  2.755536E+01 -1.922611E+04 -6.961964E+01  1.641314E-05 -1.135308E-07  5.726594E-04  6.412997E-09 -4.474518E-06 -1.206740E-08  5.889590E-04  0.000000E+00  0.000000E+00  0.000000E+00  0.000000E+00  0.000000E+00  0.000000E+00  0.000000E+00                                                                                                                                                                                                                                                                                                                                                                                                                                                                                              
  6.250000E+02  1.250000E+02 -4.725000E+03 -1.187220E+08 -1.181312E+08 -1.116659E+08  2.282100E+01 -7.179371E+04  3.415770E+01 -5.131900E-05 -1.144473E-07  5.602113E-04  5.311162E-09 -1.670865E-05  5.920669E-09  5.087779E-04  0.000000E+00  0.000000E+00  0.000000E+00  0.000000E+00  0.000000E+00  0.000000E+00  0.000000E+00                                                                                                                                                                                                                                                                                                                                                                                                                                                                                              
  7.600000E+02  1.250000E+02 -4.725000E+03 -1.187337E+08 -1.171338E+08 -1.107806E+08  2.174147E+01  6.696391E+04  1.144418E+02 -1.387639E-04 -1.097595E-07  5.505064E-04  5.059920E-09  1.558460E-05  1.983658E-08  4.116327E-04  0.000000E+00  0.000000E+00  0.000000E+00  0.000000E+00  0.000000E+00  0.000000E+00  0.000000E+00                                                                                                                                                                                                                                                                                                                                                                                                                                                                                              
  7.800000E+02  1.250000E+02 -4.725000E+03 -1.186249E+08 -1.166096E+08 -1.102352E+08  2.140945E+01 -1.152459E+02  1.195745E+02 -1.747619E-04 -1.082359E-07  5.523406E-04  4.982649E-09 -2.682134E-08  2.072625E-08  3.774704E-04  0.000000E+00  0.000000E+00  0.000000E+00  0.000000E+00  0.000000E+00  0.000000E+00  0.000000E+00                                                                                                                                                                                                                                                                                                                                                                                                                                                                                              
  8.000000E+02  1.250000E+02 -4.725000E+03 -1.187337E+08 -1.171338E+08 -1.107806E+08  2.016819E+01 -6.719438E+04  1.261966E+02 -1.387682E-04 -1.066952E-07  5.505059E-04  4.693771E-09 -1.563824E-05  2.187408E-08  4.116310E-04  0.000000E+00  0.000000E+00  0.000000E+00  0.000000E+00  0.000000E+00  0.000000E+00  0.000000E+00                                                                                                                                                                                                                                                                                                                                                                                                                                                                                              
  9.350000E+02  1.250000E+02 -4.725000E+03 -1.187223E+08 -1.181308E+08 -1.116658E+08  1.459295E+01  7.158052E+04  1.622640E+02 -5.135187E-05 -9.268805E-08  5.602084E-04  3.396238E-09  1.665903E-05  2.812576E-08  5.087638E-04  0.000000E+00  0.000000E+00  0.000000E+00  0.000000E+00  0.000000E+00  0.000000E+00  0.000000E+00                                                                                                                                                                                                                                                                                                                                                                                                                                                                                              
  1.185000E+03  1.250000E+02 -4.725000E+03 -1.188865E+08 -1.190760E+08 -1.124677E+08  5.165835E+00  1.906727E+04  1.467772E+02  1.635606E-05 -6.798729E-08  5.726541E-04  1.202252E-09  4.437551E-06  2.544138E-08  5.889422E-04  0.000000E+00  0.000000E+00  0.000000E+00  0.000000E+00  0.000000E+00  0.000000E+00  0.000000E+00                                                                                                                                                                                                                                                                                                                                                                                                                                                                                              