Title="TREACTMECH V1.0-OMP-MPI stress-strain.tec: Total Stresses (Pa), Strains"                                                                                                                                                                                                                                                                                                                                                                                                                                                                                                                                                                                                                                                                                                                                                 
Variables= "X(m)"     "Y(m)"      "Z(m)"    "Sigma_xx"    "Sigma_yy"    "Sigma_zz"    "Sigma_yz"    "Sigma_xz"    "Sigma_xy"   "Strain_xx"   "Strain_yy"   "Strain_zz"   "Strain_yz"   "Strain_xz"   "Strain_xy"  "Vol_Strain"   "E_fail_xx"   "E_fail_yy"   "E_fail_zz"  "E_fail_yz2"  "E_fail_xz2"  "E_fail_xy2"  "E_fail_vol"                                                                                                                                                                                                                                                                                                                                                                                                                                                                                                
Zone T= "1.00000000E+06 sec" I=     9 J=    10 K=    23 F=Point
  1.250000E+02  1.250000E+02 -5.425000E+03 -1.249731E+08 -1.254283E+08 -1.266410E+08 -2.618176E-02  5.395078E+03 -2.024561E-02  3.944657E-05  2.504210E-10 -1.050981E-04 -6.093317E-12  1.255604E-06 -3.509240E-12 -6.565124E-05  0.000000E+00  0.000000E+00  0.000000E+00  0.000000E+00  0.000000E+00  0.000000E+00  0.000000E+00                                                                                                                                                                                                                                                                                                                                                                                                                                                                                              
  3.750000E+02  1.250000E+02 -5.425000E+03 -1.250077E+08 -1.251228E+08 -1.262876E+08  1.169419E-03  1.500259E+04  2.323607E-02  9.967026E-06  2.608483E-10 -1.009572E-04  2.721605E-13  3.491572E-06  4.027586E-12 -9.098987E-05  0.000000E+00  0.000000E+00  0.000000E+00  0.000000E+00  0.000000E+00  0.000000E+00  0.000000E+00                                                                                                                                                                                                                                                                                                                                                                                                                                                                                              
  6.250000E+02  1.250000E+02 -5.425000E+03 -1.250627E+08 -1.246288E+08 -1.257277E+08  1.187916E-01  1.421149E+04  1.157983E-01 -3.760539E-05  2.780462E-10 -9.523682E-05  2.764652E-11  3.307460E-06  2.007170E-11 -1.328419E-04  0.000000E+00  0.000000E+00  0.000000E+00  0.000000E+00  0.000000E+00  0.000000E+00  0.000000E+00                                                                                                                                                                                                                                                                                                                                                                                                                                                                                              
  7.600000E+02  1.250000E+02 -5.425000E+03 -1.251020E+08 -1.240561E+08 -1.251217E+08  2.115404E-01  1.005970E+04  7.058467E-02 -9.064661E-05  2.816986E-10 -9.235123E-05  4.923208E-11  2.341207E-06  1.223468E-11 -1.829976E-04  0.000000E+00  0.000000E+00  0.000000E+00  0.000000E+00  0.000000E+00  0.000000E+00  0.000000E+00                                                                                                                                                                                                                                                                                                                                                                                                                                                                                              
  7.800000E+02  1.250000E+02 -5.425000E+03 -1.251129E+08 -1.237984E+08 -1.248618E+08  1.837838E-01  7.414924E-01  3.078399E-02 -1.139231E-04  2.759640E-10 -9.215573E-05  4.277225E-11  1.725685E-10  5.335891E-12 -2.060786E-04  0.000000E+00  0.000000E+00  0.000000E+00  0.000000E+00  0.000000E+00  0.000000E+00  0.000000E+00                                                                                                                                                                                                                                                                                                                                                                                                                                                                                              
  8.000000E+02  1.250000E+02 -5.425000E+03 -1.251020E+08 -1.240561E+08 -1.251217E+08  1.308959E-01 -1.005861E+04  2.466805E-01 -9.064638E-05  2.721327E-10 -9.235121E-05  3.046358E-11 -2.340953E-06  4.275795E-11 -1.829973E-04  0.000000E+00  0.000000E+00  0.000000E+00  0.000000E+00  0.000000E+00  0.000000E+00  0.000000E+00                                                                                                                                                                                                                                                                                                                                                                                                                                                                                              
  9.350000E+02  1.250000E+02 -5.425000E+03 -1.250627E+08 -1.246288E+08 -1.257276E+08  3.809746E-02 -1.421107E+04  3.827282E-02 -3.760512E-05  2.481998E-10 -9.523685E-05  8.866473E-12 -3.307362E-06  6.633955E-12 -1.328417E-04  0.000000E+00  0.000000E+00  0.000000E+00  0.000000E+00  0.000000E+00  0.000000E+00  0.000000E+00                                                                                                                                                                                                                                                                                                                                                                                                                                                                                              
  1.185000E+03  1.250000E+02 -5.425000E+03 -1.250077E+08 -1.251227E+08 -1.262876E+08 -3.020971E-02 -1.500256E+04  4.235472E-03  9.967305E-06  2.102560E-10 -1.009572E-04 -7.030745E-12 -3.491566E-06  7.341484E-13 -9.098972E-05  0.000000E+00  0.000000E+00  0.000000E+00  0.000000E+00  0.000000E+00  0.000000E+00  0.000000E+00                                                                                                                                                                                                                                                                                                                                                                                                                                                                                              
  1.435000E+03  1.250000E+02 -5.425000E+03 -1.249731E+08 -1.254283E+08 -1.266410E+08 -3.249097E-02 -5.395095E+03  2.975620E-02  3.944689E-05  1.932636E-10 -1.050981E-04 -7.561667E-12 -1.255608E-06  5.157741E-12 -6.565106E-05  0.000000E+00  0.000000E+00  0.000000E+00  0.000000E+00  0.000000E+00  0.000000E+00  0.000000E+00                                                                                                                                                                                                                                                                                                                                                                                                                                                                                              
  1.250000E+02  1.250000E+02 -5.225000E+03 -1.210742E+08 -1.215490E+08 -1.226964E+08 -1.515541E-01  1.434260E+04 -1.605330E-02  4.114627E-05  2.259667E-10 -9.944394E-05 -3.527139E-11  3.337973E-06 -2.782573E-12 -5.829744E-05  0.000000E+00  0.000000E+00  0.000000E+00  0.000000E+00  0.000000E+00  0.000000E+00  0.000000E+00                                                                                                                                                                                                                                                                                                                                                                                                                                                                                              
  3.750000E+02  1.250000E+02 -5.225000E+03 -1.210894E+08 -1.212181E+08 -1.223374E+08 -1.433156E-01  3.863584E+04 -7.647526E-04  1.115327E-05  2.365910E-10 -9.701102E-05 -3.335403E-11  8.991771E-06 -1.325571E-13 -8.585752E-05  0.000000E+00  0.000000E+00  0.000000E+00  0.000000E+00  0.000000E+00  0.000000E+00  0.000000E+00                                                                                                                                                                                                                                                                                                                                                                                                                                                                                              
  6.250000E+02  1.250000E+02 -5.225000E+03 -1.211145E+08 -1.206600E+08 -1.217421E+08 -9.625163E-02  3.285133E+04 -4.899753E-03 -3.939149E-05  2.621894E-10 -9.378943E-05 -2.240077E-11  7.645533E-06 -8.492906E-13 -1.331807E-04  0.000000E+00  0.000000E+00  0.000000E+00  0.000000E+00  0.000000E+00  0.000000E+00  0.000000E+00                                                                                                                                                                                                                                                                                                                                                                                                                                                                                              
  7.600000E+02  1.250000E+02 -5.225000E+03 -1.211247E+08 -1.199874E+08 -1.210542E+08 -3.627698E-02  1.051176E+04  2.803165E-02 -9.857382E-05  2.789752E-10 -9.246387E-05 -8.442789E-12  2.446416E-06  4.858819E-12 -1.910374E-04  0.000000E+00  0.000000E+00  0.000000E+00  0.000000E+00  0.000000E+00  0.000000E+00  0.000000E+00                                                                                                                                                                                                                                                                                                                                                                                                                                                                                              
  7.800000E+02  1.250000E+02 -5.225000E+03 -1.211280E+08 -1.196792E+08 -1.207475E+08 -8.707494E-03  1.271220E-01 -9.085853E-02 -1.255638E-04  2.804545E-10 -9.258599E-05 -2.026507E-12  2.958527E-11 -1.574881E-11 -2.181495E-04  0.000000E+00  0.000000E+00  0.000000E+00  0.000000E+00  0.000000E+00  0.000000E+00  0.000000E+00                                                                                                                                                                                                                                                                                                                                                                                                                                                                                              
  8.000000E+02  1.250000E+02 -5.225000E+03 -1.211247E+08 -1.199874E+08 -1.210542E+08 -2.316092E-02 -1.051238E+04 -4.535636E-01 -9.857370E-05  2.747470E-10 -9.246389E-05 -5.390272E-12 -2.446560E-06 -7.861768E-11 -1.910373E-04  0.000000E+00  0.000000E+00  0.000000E+00  0.000000E+00  0.000000E+00  0.000000E+00  0.000000E+00                                                                                                                                                                                                                                                                                                                                                                                                                                                                                              
  9.350000E+02  1.250000E+02 -5.225000E+03 -1.211145E+08 -1.206600E+08 -1.217421E+08 -1.117330E-01 -3.285171E+04 -1.618237E-01 -3.939127E-05  2.341713E-10 -9.378948E-05 -2.600377E-11 -7.645622E-06 -2.804943E-11 -1.331805E-04  0.000000E+00  0.000000E+00  0.000000E+00  0.000000E+00  0.000000E+00  0.000000E+00  0.000000E+00                                                                                                                                                                                                                                                                                                                                                                                                                                                                                              
  1.185000E+03  1.250000E+02 -5.225000E+03 -1.210894E+08 -1.212181E+08 -1.223374E+08 -1.394865E-01 -3.863584E+04  2.927200E-02  1.115355E-05  1.882230E-10 -9.701109E-05 -3.246289E-11 -8.991771E-06  5.073813E-12 -8.585736E-05  0.000000E+00  0.000000E+00  0.000000E+00  0.000000E+00  0.000000E+00  0.000000E+00  0.000000E+00                                                                                                                                                                                                                                                                                                                                                                                                                                                                                              
  1.435000E+03  1.250000E+02 -5.225000E+03 -1.210742E+08 -1.215490E+08 -1.226964E+08 -1.134331E-01 -1.434260E+04  1.518564E-02  4.114658E-05  1.741190E-10 -9.944401E-05 -2.639945E-11 -3.337973E-06  2.632178E-12 -5.829726E-05  0.000000E+00  0.000000E+00  0.000000E+00  0.000000E+00  0.000000E+00  0.000000E+00  0.000000E+00                                                                                                                                                                                                                                                                                                                                                                                                                                                                                              
  1.250000E+02  1.250000E+02 -4.975000E+03 -1.161677E+08 -1.166813E+08 -1.177776E+08 -2.653924E-01  2.307763E+04 -2.020368E-02  4.451470E-05  1.689137E-10 -9.500931E-05 -6.176513E-11  5.370888E-06 -3.501971E-12 -5.049444E-05  0.000000E+00  0.000000E+00  0.000000E+00  0.000000E+00  0.000000E+00  0.000000E+00  0.000000E+00                                                                                                                                                                                                                                                                                                                                                                                                                                                                                              
  3.750000E+02  1.250000E+02 -4.975000E+03 -1.161868E+08 -1.163373E+08 -1.174067E+08 -2.445863E-01  5.959595E+04  7.850661E-02  1.305037E-05  1.772573E-10 -9.267814E-05 -5.692289E-11  1.386984E-05  1.360781E-11 -7.962759E-05  0.000000E+00  0.000000E+00  0.000000E+00  0.000000E+00  0.000000E+00  0.000000E+00  0.000000E+00                                                                                                                                                                                                                                                                                                                                                                                                                                                                                              
  6.250000E+02  1.250000E+02 -4.975000E+03 -1.162039E+08 -1.157121E+08 -1.167456E+08 -2.248766E-01  5.125348E+04  2.329086E-01 -4.262200E-05  1.914076E-10 -8.957081E-05 -5.233584E-11  1.192829E-05  4.037082E-11 -1.321926E-04  0.000000E+00  0.000000E+00  0.000000E+00  0.000000E+00  0.000000E+00  0.000000E+00  0.000000E+00                                                                                                                                                                                                                                                                                                                                                                                                                                                                                              
  7.600000E+02  1.250000E+02 -4.975000E+03 -1.162401E+08 -1.149306E+08 -1.159421E+08 -2.755135E-01  3.036689E+04  1.501459E-01 -1.134940E-04  1.922709E-10 -8.766867E-05 -6.412064E-11  7.067328E-06  2.602529E-11 -2.011624E-04  0.000000E+00  0.000000E+00  0.000000E+00  0.000000E+00  0.000000E+00  0.000000E+00  0.000000E+00                                                                                                                                                                                                                                                                                                                                                                                                                                                                                              
  7.800000E+02  1.250000E+02 -4.975000E+03 -1.162486E+08 -1.145571E+08 -1.155637E+08 -3.540388E-01  2.755065E-01  1.632430E-01 -1.465992E-04  1.858914E-10 -8.724053E-05 -8.239593E-11  6.411899E-11  2.829545E-11 -2.338395E-04  0.000000E+00  0.000000E+00  0.000000E+00  0.000000E+00  0.000000E+00  0.000000E+00  0.000000E+00                                                                                                                                                                                                                                                                                                                                                                                                                                                                                              
  8.000000E+02  1.250000E+02 -4.975000E+03 -1.162401E+08 -1.149306E+08 -1.159421E+08 -3.662979E-01 -3.036762E+04  4.415870E-01 -1.134938E-04  1.835994E-10 -8.766867E-05 -8.524900E-11 -7.067496E-06  7.654174E-11 -2.011623E-04  0.000000E+00  0.000000E+00  0.000000E+00  0.000000E+00  0.000000E+00  0.000000E+00  0.000000E+00                                                                                                                                                                                                                                                                                                                                                                                                                                                                                              
  9.350000E+02  1.250000E+02 -4.975000E+03 -1.162039E+08 -1.157121E+08 -1.167456E+08 -2.855361E-01 -5.125379E+04  1.423445E-01 -4.262176E-05  1.684865E-10 -8.957083E-05 -6.645319E-11 -1.192836E-05  2.467305E-11 -1.321924E-04  0.000000E+00  0.000000E+00  0.000000E+00  0.000000E+00  0.000000E+00  0.000000E+00  0.000000E+00                                                                                                                                                                                                                                                                                                                                                                                                                                                                                              
  1.185000E+03  1.250000E+02 -4.975000E+03 -1.161867E+08 -1.163373E+08 -1.174067E+08 -2.221508E-01 -5.959585E+04  4.767152E-02  1.305065E-05  1.419598E-10 -9.267820E-05 -5.170145E-11 -1.386982E-05  8.263063E-12 -7.962740E-05  0.000000E+00  0.000000E+00  0.000000E+00  0.000000E+00  0.000000E+00  0.000000E+00  0.000000E+00                                                                                                                                                                                                                                                                                                                                                                                                                                                                                              
  1.435000E+03  1.250000E+02 -4.975000E+03 -1.161677E+08 -1.166813E+08 -1.177776E+08 -2.000706E-01 -2.307764E+04  3.529888E-02  4.451499E-05  1.292973E-10 -9.500938E-05 -4.656271E-11 -5.370890E-06  6.118472E-12 -5.049425E-05  0.000000E+00  0.000000E+00  0.000000E+00  0.000000E+00  0.000000E+00  0.000000E+00  0.000000E+00                                                                                                                                                                                                                                                                                                                                                                                                                                                                                              
  1.250000E+02  1.250000E+02 -4.725000E+03 -1.113498E+08 -1.118978E+08 -1.128732E+08 -3.446766E-01  1.922586E+04 -3.550409E-02  4.748838E-05  9.121676E-11 -8.453847E-05 -8.021705E-11  4.474461E-06 -6.154042E-12 -3.705000E-05  0.000000E+00  0.000000E+00  0.000000E+00  0.000000E+00  0.000000E+00  0.000000E+00  0.000000E+00                                                                                                                                                                                                                                                                                                                                                                                                                                                                                              
  3.750000E+02  1.250000E+02 -4.725000E+03 -1.113114E+08 -1.115175E+08 -1.124822E+08 -3.369871E-01  7.564752E+04  2.937886E-02  1.785920E-05  9.777442E-11 -8.361094E-05 -7.842746E-11  1.760555E-05  5.092336E-12 -6.575164E-05  0.000000E+00  0.000000E+00  0.000000E+00  0.000000E+00  0.000000E+00  0.000000E+00  0.000000E+00                                                                                                                                                                                                                                                                                                                                                                                                                                                                                              
  6.250000E+02  1.250000E+02 -4.725000E+03 -1.113723E+08 -1.108141E+08 -1.117376E+08 -2.262022E-01  7.164765E+04  1.644551E-01 -4.837849E-05  1.137189E-10 -8.003446E-05 -5.264434E-11  1.667465E-05  2.850554E-11 -1.284128E-04  0.000000E+00  0.000000E+00  0.000000E+00  0.000000E+00  0.000000E+00  0.000000E+00  0.000000E+00                                                                                                                                                                                                                                                                                                                                                                                                                                                                                              
  7.600000E+02  1.250000E+02 -4.725000E+03 -1.113074E+08 -1.098229E+08 -1.107355E+08 -1.157755E-01 -1.387675E+04 -8.013793E-03 -1.286632E-04  1.150328E-10 -7.909416E-05 -2.694460E-11 -3.229556E-06 -1.389058E-12 -2.077572E-04  0.000000E+00  0.000000E+00  0.000000E+00  0.000000E+00  0.000000E+00  0.000000E+00  0.000000E+00                                                                                                                                                                                                                                                                                                                                                                                                                                                                                              
  7.800000E+02  1.250000E+02 -4.725000E+03 -1.112786E+08 -1.093528E+08 -1.102791E+08 -1.093687E-01  1.810295E-01 -1.297220E-02 -1.669104E-04  1.051807E-10 -8.027938E-05 -2.545353E-11  4.213124E-11 -2.248514E-12 -2.471897E-04  0.000000E+00  0.000000E+00  0.000000E+00  0.000000E+00  0.000000E+00  0.000000E+00  0.000000E+00                                                                                                                                                                                                                                                                                                                                                                                                                                                                                              
  8.000000E+02  1.250000E+02 -4.725000E+03 -1.113074E+08 -1.098229E+08 -1.107355E+08 -1.494502E-01  1.387508E+04  5.027020E-01 -1.286630E-04  1.017711E-10 -7.909418E-05 -3.478175E-11  3.229166E-06  8.713501E-11 -2.077571E-04  0.000000E+00  0.000000E+00  0.000000E+00  0.000000E+00  0.000000E+00  0.000000E+00  0.000000E+00                                                                                                                                                                                                                                                                                                                                                                                                                                                                                              
  9.350000E+02  1.250000E+02 -4.725000E+03 -1.113723E+08 -1.108141E+08 -1.117376E+08 -2.526832E-01 -7.164820E+04  1.792641E-01 -4.837825E-05  9.521983E-11 -8.003453E-05 -5.880731E-11 -1.667478E-05  3.107244E-11 -1.284127E-04  0.000000E+00  0.000000E+00  0.000000E+00  0.000000E+00  0.000000E+00  0.000000E+00  0.000000E+00                                                                                                                                                                                                                                                                                                                                                                                                                                                                                              
  1.185000E+03  1.250000E+02 -4.725000E+03 -1.113114E+08 -1.115175E+08 -1.124822E+08 -2.746938E-01 -7.564721E+04  7.372730E-02  1.785946E-05  7.976789E-11 -8.361103E-05 -6.392986E-11 -1.760548E-05  1.277940E-11 -6.575149E-05  0.000000E+00  0.000000E+00  0.000000E+00  0.000000E+00  0.000000E+00  0.000000E+00  0.000000E+00                                                                                                                                                                                                                                                                                                                                                                                                                                                                                              