Title="TREACTMECH V1.0-OMP-MPI stress-strain.tec: Total Stresses (Pa), Strains"                                                                                                                                                                                                                                                                                                                                                                                                                                                                                                                                                                                                                                                                                                                                                 
Variables= "X(m)"     "Y(m)"      "Z(m)"    "Sigma_xx"    "Sigma_yy"    "Sigma_zz"    "Sigma_yz"    "Sigma_xz"    "Sigma_xy"   "Strain_xx"   "Strain_yy"   "Strain_zz"   "Strain_yz"   "Strain_xz"   "Strain_xy"  "Vol_Strain"   "E_fail_xx"   "E_fail_yy"   "E_fail_zz"  "E_fail_yz2"  "E_fail_xz2"  "E_fail_xy2"  "E_fail_vol"                                                                                                                                                                                                                                                                                                                                                                                                                                                                                                
Zone T= "5.00000000E-02 sec" I=     9 J=    10 K=    23 F=Point
  1.250000E+02  1.250000E+02 -5.425000E+03 -1.245095E+08 -1.251222E+08 -1.267996E+08 -2.697601E-03  6.514948E+03 -3.532223E-02  5.310605E-05 -2.022034E-10 -1.453768E-04 -6.278163E-13  1.516232E-06 -6.122521E-12 -9.227090E-05  0.000000E+00  0.000000E+00  0.000000E+00  0.000000E+00  0.000000E+00  0.000000E+00  0.000000E+00                                                                                                                                                                                                                                                                                                                                                                                                                                                                                              
  3.750000E+02  1.250000E+02 -5.425000E+03 -1.245515E+08 -1.247025E+08 -1.263231E+08 -7.573178E-03  1.830074E+04 -1.956182E-01  1.308543E-05 -2.401457E-10 -1.404548E-04 -1.762516E-12  4.259155E-06 -3.390715E-11 -1.273696E-04  0.000000E+00  0.000000E+00  0.000000E+00  0.000000E+00  0.000000E+00  0.000000E+00  0.000000E+00                                                                                                                                                                                                                                                                                                                                                                                                                                                                                              
  6.250000E+02  1.250000E+02 -5.425000E+03 -1.246185E+08 -1.240195E+08 -1.255621E+08  1.023753E-01  1.678286E+04 -1.705313E-01 -5.191266E-05 -3.176273E-10 -1.336935E-04  2.382595E-11  3.905898E-06 -2.955876E-11 -1.856065E-04  0.000000E+00  0.000000E+00  0.000000E+00  0.000000E+00  0.000000E+00  0.000000E+00  0.000000E+00                                                                                                                                                                                                                                                                                                                                                                                                                                                                                              
  7.600000E+02  1.250000E+02 -5.425000E+03 -1.246628E+08 -1.233805E+08 -1.248842E+08  2.960218E-01  1.118874E+04 -1.792414E-01 -1.111332E-04 -3.692316E-10 -1.303258E-04  6.889355E-11  2.603970E-06 -3.106851E-11 -2.414593E-04  0.000000E+00  0.000000E+00  0.000000E+00  0.000000E+00  0.000000E+00  0.000000E+00  0.000000E+00                                                                                                                                                                                                                                                                                                                                                                                                                                                                                              
  7.800000E+02  1.250000E+02 -5.425000E+03 -1.246733E+08 -1.231190E+08 -1.246202E+08  4.397305E-01  1.207665E-01 -1.232923E-01 -1.347057E-04 -3.809797E-10 -1.301040E-04  1.023391E-10  2.810615E-11 -2.137067E-11 -2.648101E-04  0.000000E+00  0.000000E+00  0.000000E+00  0.000000E+00  0.000000E+00  0.000000E+00  0.000000E+00                                                                                                                                                                                                                                                                                                                                                                                                                                                                                              
  8.000000E+02  1.250000E+02 -5.425000E+03 -1.246628E+08 -1.233805E+08 -1.248842E+08  4.257896E-01 -1.118838E+04  5.495846E-01 -1.111331E-04 -3.834857E-10 -1.303258E-04  9.909457E-11 -2.603886E-06  9.526134E-11 -2.414594E-04  0.000000E+00  0.000000E+00  0.000000E+00  0.000000E+00  0.000000E+00  0.000000E+00  0.000000E+00                                                                                                                                                                                                                                                                                                                                                                                                                                                                                              
  9.350000E+02  1.250000E+02 -5.425000E+03 -1.246185E+08 -1.240195E+08 -1.255621E+08  1.408884E-01 -1.678280E+04  4.163677E-01 -5.191265E-05 -3.407962E-10 -1.336935E-04  3.278914E-11 -3.905884E-06  7.217040E-11 -1.856065E-04  0.000000E+00  0.000000E+00  0.000000E+00  0.000000E+00  0.000000E+00  0.000000E+00  0.000000E+00                                                                                                                                                                                                                                                                                                                                                                                                                                                                                              
  1.185000E+03  1.250000E+02 -5.425000E+03 -1.245515E+08 -1.247025E+08 -1.263231E+08 -2.088120E-02 -1.830081E+04  2.106517E-01  1.308547E-05 -2.820818E-10 -1.404548E-04 -4.859709E-12 -4.259173E-06  3.651296E-11 -1.273696E-04  0.000000E+00  0.000000E+00  0.000000E+00  0.000000E+00  0.000000E+00  0.000000E+00  0.000000E+00                                                                                                                                                                                                                                                                                                                                                                                                                                                                                              
  1.435000E+03  1.250000E+02 -5.425000E+03 -1.245095E+08 -1.251222E+08 -1.267996E+08 -4.808389E-03 -6.514941E+03  5.348808E-02  5.310611E-05 -2.625823E-10 -1.453767E-04 -1.119063E-12 -1.516231E-06  9.271267E-12 -9.227090E-05  0.000000E+00  0.000000E+00  0.000000E+00  0.000000E+00  0.000000E+00  0.000000E+00  0.000000E+00                                                                                                                                                                                                                                                                                                                                                                                                                                                                                              
  1.250000E+02  1.250000E+02 -5.225000E+03 -1.206331E+08 -1.212694E+08 -1.228592E+08  1.741297E-02  1.655041E+04 -2.805612E-02  5.514593E-05 -1.857097E-10 -1.377823E-04  4.052544E-12  3.851800E-06 -4.863061E-12 -8.263655E-05  0.000000E+00  0.000000E+00  0.000000E+00  0.000000E+00  0.000000E+00  0.000000E+00  0.000000E+00                                                                                                                                                                                                                                                                                                                                                                                                                                                                                              
  3.750000E+02  1.250000E+02 -5.225000E+03 -1.206485E+08 -1.208167E+08 -1.223766E+08  1.275994E-02  4.536529E+04 -1.239991E-01  1.457183E-05 -2.239408E-10 -1.351917E-04  2.969637E-12  1.055792E-05 -2.149318E-11 -1.206201E-04  0.000000E+00  0.000000E+00  0.000000E+00  0.000000E+00  0.000000E+00  0.000000E+00  0.000000E+00                                                                                                                                                                                                                                                                                                                                                                                                                                                                                              
  6.250000E+02  1.250000E+02 -5.225000E+03 -1.206763E+08 -1.200506E+08 -1.215701E+08 -1.404894E-02  3.824842E+04 -2.091810E-01 -5.422499E-05 -2.993746E-10 -1.316870E-04 -3.269629E-12  8.901605E-06 -3.625804E-11 -1.859123E-04  0.000000E+00  0.000000E+00  0.000000E+00  0.000000E+00  0.000000E+00  0.000000E+00  0.000000E+00                                                                                                                                                                                                                                                                                                                                                                                                                                                                                              
  7.600000E+02  1.250000E+02 -5.225000E+03 -1.206872E+08 -1.193028E+08 -1.208057E+08 -4.195607E-02  1.056061E+04 -8.500319E-02 -1.199758E-04 -3.464693E-10 -1.302518E-04 -9.764492E-12  2.457785E-06 -1.473389E-11 -2.502279E-04  0.000000E+00  0.000000E+00  0.000000E+00  0.000000E+00  0.000000E+00  0.000000E+00  0.000000E+00                                                                                                                                                                                                                                                                                                                                                                                                                                                                                              
  7.800000E+02  1.250000E+02 -5.225000E+03 -1.206921E+08 -1.189916E+08 -1.204964E+08 -1.436641E-02 -9.209896E-02 -3.030478E-02 -1.473697E-04 -3.491074E-10 -1.304138E-04 -3.343513E-12 -2.143431E-11 -5.252828E-12 -2.777839E-04  0.000000E+00  0.000000E+00  0.000000E+00  0.000000E+00  0.000000E+00  0.000000E+00  0.000000E+00                                                                                                                                                                                                                                                                                                                                                                                                                                                                                              
  8.000000E+02  1.250000E+02 -5.225000E+03 -1.206872E+08 -1.193028E+08 -1.208057E+08  1.487222E-02 -1.056128E+04  1.334394E-01 -1.199758E-04 -3.488716E-10 -1.302518E-04  3.461231E-12 -2.457941E-06  2.312950E-11 -2.502279E-04  0.000000E+00  0.000000E+00  0.000000E+00  0.000000E+00  0.000000E+00  0.000000E+00  0.000000E+00                                                                                                                                                                                                                                                                                                                                                                                                                                                                                              
  9.350000E+02  1.250000E+02 -5.225000E+03 -1.206763E+08 -1.200506E+08 -1.215701E+08  4.286574E-02 -3.824874E+04  2.770661E-01 -5.422496E-05 -3.158688E-10 -1.316870E-04  9.976200E-12 -8.901680E-06  4.802478E-11 -1.859123E-04  0.000000E+00  0.000000E+00  0.000000E+00  0.000000E+00  0.000000E+00  0.000000E+00  0.000000E+00                                                                                                                                                                                                                                                                                                                                                                                                                                                                                              
  1.185000E+03  1.250000E+02 -5.225000E+03 -1.206485E+08 -1.208167E+08 -1.223766E+08  6.314552E-02 -4.536529E+04  2.011561E-01  1.457189E-05 -2.650035E-10 -1.351917E-04  1.469594E-11 -1.055792E-05  3.486705E-11 -1.206200E-04  0.000000E+00  0.000000E+00  0.000000E+00  0.000000E+00  0.000000E+00  0.000000E+00  0.000000E+00                                                                                                                                                                                                                                                                                                                                                                                                                                                                                              
  1.435000E+03  1.250000E+02 -5.225000E+03 -1.206331E+08 -1.212694E+08 -1.228592E+08  8.220135E-02 -1.655039E+04  4.507263E-02  5.514599E-05 -2.435144E-10 -1.377823E-04  1.913083E-11 -3.851795E-06  7.812589E-12 -8.263654E-05  0.000000E+00  0.000000E+00  0.000000E+00  0.000000E+00  0.000000E+00  0.000000E+00  0.000000E+00                                                                                                                                                                                                                                                                                                                                                                                                                                                                                              
  1.250000E+02  1.250000E+02 -4.975000E+03 -1.157549E+08 -1.164311E+08 -1.179441E+08 -4.822624E-03  2.266997E+04 -4.199654E-02  5.859950E-05 -1.525288E-10 -1.311263E-04 -1.122376E-12  5.276012E-06 -7.279401E-12 -7.252700E-05  0.000000E+00  0.000000E+00  0.000000E+00  0.000000E+00  0.000000E+00  0.000000E+00  0.000000E+00                                                                                                                                                                                                                                                                                                                                                                                                                                                                                              
  3.750000E+02  1.250000E+02 -4.975000E+03 -1.157625E+08 -1.159575E+08 -1.174518E+08  1.728120E-02  6.106408E+04 -9.485151E-02  1.690346E-05 -1.812512E-10 -1.295061E-04  4.021877E-12  1.421153E-05 -1.644093E-11 -1.126028E-04  0.000000E+00  0.000000E+00  0.000000E+00  0.000000E+00  0.000000E+00  0.000000E+00  0.000000E+00                                                                                                                                                                                                                                                                                                                                                                                                                                                                                              
  6.250000E+02  1.250000E+02 -4.975000E+03 -1.157655E+08 -1.150988E+08 -1.165661E+08  8.090498E-02  5.436750E+04 -1.159990E-01 -5.778655E-05 -2.339292E-10 -1.271705E-04  1.882912E-11  1.265302E-05 -2.010650E-11 -1.849572E-04  0.000000E+00  0.000000E+00  0.000000E+00  0.000000E+00  0.000000E+00  0.000000E+00  0.000000E+00                                                                                                                                                                                                                                                                                                                                                                                                                                                                                              
  7.600000E+02  1.250000E+02 -4.975000E+03 -1.158056E+08 -1.142304E+08 -1.156770E+08  1.255423E-01  3.734826E+04 -6.938540E-03 -1.365165E-04 -2.677322E-10 -1.253709E-04  2.921763E-11  8.692110E-06 -1.202680E-12 -2.618876E-04  0.000000E+00  0.000000E+00  0.000000E+00  0.000000E+00  0.000000E+00  0.000000E+00  0.000000E+00                                                                                                                                                                                                                                                                                                                                                                                                                                                                                              
  7.800000E+02  1.250000E+02 -4.975000E+03 -1.158096E+08 -1.138495E+08 -1.152892E+08  1.359581E-01  5.093777E-01 -2.968456E-02 -1.698798E-04 -2.711728E-10 -1.247750E-04  3.164170E-11  1.185481E-10 -5.145323E-12 -2.946550E-04  0.000000E+00  0.000000E+00  0.000000E+00  0.000000E+00  0.000000E+00  0.000000E+00  0.000000E+00                                                                                                                                                                                                                                                                                                                                                                                                                                                                                              
  8.000000E+02  1.250000E+02 -4.975000E+03 -1.158056E+08 -1.142304E+08 -1.156770E+08  1.379282E-01 -3.734841E+04  4.375756E-02 -1.365164E-04 -2.740077E-10 -1.253709E-04  3.210022E-11 -8.692144E-06  7.584644E-12 -2.618875E-04  0.000000E+00  0.000000E+00  0.000000E+00  0.000000E+00  0.000000E+00  0.000000E+00  0.000000E+00                                                                                                                                                                                                                                                                                                                                                                                                                                                                                              
  9.350000E+02  1.250000E+02 -4.975000E+03 -1.157655E+08 -1.150988E+08 -1.165661E+08  1.194995E-01 -5.436761E+04  2.059140E-01 -5.778649E-05 -2.545970E-10 -1.271705E-04  2.781129E-11 -1.265305E-05  3.569176E-11 -1.849572E-04  0.000000E+00  0.000000E+00  0.000000E+00  0.000000E+00  0.000000E+00  0.000000E+00  0.000000E+00                                                                                                                                                                                                                                                                                                                                                                                                                                                                                              
  1.185000E+03  1.250000E+02 -4.975000E+03 -1.157625E+08 -1.159575E+08 -1.174518E+08  9.064314E-02 -6.106402E+04  1.213669E-01  1.690353E-05 -2.202218E-10 -1.295061E-04  2.109550E-11 -1.421151E-05  2.103694E-11 -1.126028E-04  0.000000E+00  0.000000E+00  0.000000E+00  0.000000E+00  0.000000E+00  0.000000E+00  0.000000E+00                                                                                                                                                                                                                                                                                                                                                                                                                                                                                              
  1.435000E+03  1.250000E+02 -4.975000E+03 -1.157549E+08 -1.164311E+08 -1.179441E+08  7.579544E-02 -2.266995E+04  4.967243E-02  5.859957E-05 -1.991142E-10 -1.311264E-04  1.763997E-11 -5.276007E-06  8.609889E-12 -7.252698E-05  0.000000E+00  0.000000E+00  0.000000E+00  0.000000E+00  0.000000E+00  0.000000E+00  0.000000E+00                                                                                                                                                                                                                                                                                                                                                                                                                                                                                              
  1.250000E+02  1.250000E+02 -4.725000E+03 -1.109091E+08 -1.116031E+08 -1.130318E+08 -2.472620E-02  1.298306E+04 -2.742459E-02  6.014198E-05 -1.142969E-10 -1.238252E-04 -5.754562E-12  3.021565E-06 -4.753596E-12 -6.368334E-05  0.000000E+00  0.000000E+00  0.000000E+00  0.000000E+00  0.000000E+00  0.000000E+00  0.000000E+00                                                                                                                                                                                                                                                                                                                                                                                                                                                                                              
  3.750000E+02  1.250000E+02 -4.725000E+03 -1.108553E+08 -1.111084E+08 -1.125308E+08 -1.691260E-02  6.329623E+04 -1.104736E-01  2.193095E-05 -1.326219E-10 -1.232761E-04 -3.936093E-12  1.473102E-05 -1.914876E-11 -1.013453E-04  0.000000E+00  0.000000E+00  0.000000E+00  0.000000E+00  0.000000E+00  0.000000E+00  0.000000E+00                                                                                                                                                                                                                                                                                                                                                                                                                                                                                              
  6.250000E+02  1.250000E+02 -4.725000E+03 -1.108987E+08 -1.101748E+08 -1.115627E+08 -3.285880E-02  6.424910E+04 -3.234756E-01 -6.273771E-05 -1.619348E-10 -1.202813E-04 -7.647273E-12  1.495278E-05 -5.606910E-11 -1.830192E-04  0.000000E+00  0.000000E+00  0.000000E+00  0.000000E+00  0.000000E+00  0.000000E+00  0.000000E+00                                                                                                                                                                                                                                                                                                                                                                                                                                                                                              
  7.600000E+02  1.250000E+02 -4.725000E+03 -1.107858E+08 -1.090759E+08 -1.104635E+08 -5.944362E-02 -3.642431E+04 -1.953737E-01 -1.481915E-04 -1.759919E-10 -1.202537E-04 -1.383439E-11 -8.477079E-06 -3.386477E-11 -2.684454E-04  0.000000E+00  0.000000E+00  0.000000E+00  0.000000E+00  0.000000E+00  0.000000E+00  0.000000E+00                                                                                                                                                                                                                                                                                                                                                                                                                                                                                              
  7.800000E+02  1.250000E+02 -4.725000E+03 -1.107656E+08 -1.086079E+08 -1.100166E+08 -6.217518E-02 -3.681241E-01 -2.716529E-01 -1.870004E-04 -1.714633E-10 -1.220926E-04 -1.447011E-11 -8.567401E-11 -4.708650E-11 -3.090932E-04  0.000000E+00  0.000000E+00  0.000000E+00  0.000000E+00  0.000000E+00  0.000000E+00  0.000000E+00                                                                                                                                                                                                                                                                                                                                                                                                                                                                                              
  8.000000E+02  1.250000E+02 -4.725000E+03 -1.107858E+08 -1.090759E+08 -1.104635E+08 -4.928491E-02  3.642270E+04 -5.839916E-01 -1.481915E-04 -1.726658E-10 -1.202538E-04 -1.147014E-11  8.476704E-06 -1.012252E-10 -2.684454E-04  0.000000E+00  0.000000E+00  0.000000E+00  0.000000E+00  0.000000E+00  0.000000E+00  0.000000E+00                                                                                                                                                                                                                                                                                                                                                                                                                                                                                              
  9.350000E+02  1.250000E+02 -4.725000E+03 -1.108987E+08 -1.101748E+08 -1.115627E+08  2.437574E-02 -6.424964E+04 -1.304577E-01 -6.273765E-05 -1.723159E-10 -1.202814E-04  5.672998E-12 -1.495290E-05 -2.261266E-11 -1.830192E-04  0.000000E+00  0.000000E+00  0.000000E+00  0.000000E+00  0.000000E+00  0.000000E+00  0.000000E+00                                                                                                                                                                                                                                                                                                                                                                                                                                                                                              
  1.185000E+03  1.250000E+02 -4.725000E+03 -1.108553E+08 -1.111084E+08 -1.125308E+08  6.472792E-02 -6.329617E+04  5.116717E-02  2.193105E-05 -1.616878E-10 -1.232762E-04  1.506421E-11 -1.473100E-05  8.868976E-12 -1.013453E-04  0.000000E+00  0.000000E+00  0.000000E+00  0.000000E+00  0.000000E+00  0.000000E+00  0.000000E+00                                                                                                                                                                                                                                                                                                                                                                                                                                                                                              