Title="TREACTMECH V1.0-OMP-MPI stress-strain.tec: Total Stresses (Pa), Strains"                                                                                                                                                                                                                                                                                                                                                                                                                                                                                                                                                                                                                                                                                                                                                 
Variables= "X(m)"     "Y(m)"      "Z(m)"    "Sigma_xx"    "Sigma_yy"    "Sigma_zz"    "Sigma_yz"    "Sigma_xz"    "Sigma_xy"   "Strain_xx"   "Strain_yy"   "Strain_zz"   "Strain_yz"   "Strain_xz"   "Strain_xy"  "Vol_Strain"   "E_fail_xx"   "E_fail_yy"   "E_fail_zz"  "E_fail_yz2"  "E_fail_xz2"  "E_fail_xy2"  "E_fail_vol"                                                                                                                                                                                                                                                                                                                                                                                                                                                                                                
Zone T= "1.00000000E+07 sec" I=     9 J=    10 K=    23 F=Point
  1.250000E+02  1.250000E+02 -5.425000E+03 -1.249801E+08 -1.255072E+08 -1.267127E+08 -6.889700E-01  6.499613E+03 -3.126172E-01  4.568269E-05  1.863795E-09 -1.044714E-04 -1.603449E-10  1.512664E-06 -5.418698E-11 -5.878682E-05  0.000000E+00  0.000000E+00  0.000000E+00  0.000000E+00  0.000000E+00  0.000000E+00  0.000000E+00                                                                                                                                                                                                                                                                                                                                                                                                                                                                                              
  3.750000E+02  1.250000E+02 -5.425000E+03 -1.250219E+08 -1.251630E+08 -1.263131E+08 -6.824058E-01  1.810668E+04 -4.395666E-01  1.222841E-05  1.777066E-09 -9.967164E-05 -1.588172E-10  4.213992E-06 -7.619155E-11 -8.744145E-05  0.000000E+00  0.000000E+00  0.000000E+00  0.000000E+00  0.000000E+00  0.000000E+00  0.000000E+00                                                                                                                                                                                                                                                                                                                                                                                                                                                                                              
  6.250000E+02  1.250000E+02 -5.425000E+03 -1.250881E+08 -1.245736E+08 -1.256479E+08 -4.796029E-01  1.652860E+04  4.647492E-01 -4.459102E-05  1.765447E-09 -9.310790E-05 -1.116186E-10  3.846723E-06  8.055653E-11 -1.376971E-04  0.000000E+00  0.000000E+00  0.000000E+00  0.000000E+00  0.000000E+00  0.000000E+00  0.000000E+00                                                                                                                                                                                                                                                                                                                                                                                                                                                                                              
  7.600000E+02  1.250000E+02 -5.425000E+03 -1.251315E+08 -1.239415E+08 -1.249783E+08 -2.887882E-01  1.049805E+04  9.924363E-01 -1.031384E-04  1.811167E-09 -8.986150E-05 -6.721006E-11  2.443226E-06  1.720223E-10 -1.929981E-04  0.000000E+00  0.000000E+00  0.000000E+00  0.000000E+00  0.000000E+00  0.000000E+00  0.000000E+00                                                                                                                                                                                                                                                                                                                                                                                                                                                                                              
  7.800000E+02  1.250000E+02 -5.425000E+03 -1.251428E+08 -1.236808E+08 -1.247153E+08 -2.096723E-01  4.151783E-01  1.077483E+00 -1.267060E-04  1.822936E-09 -8.966145E-05 -4.879731E-11  9.662500E-11  1.867638E-10 -2.163656E-04  0.000000E+00  0.000000E+00  0.000000E+00  0.000000E+00  0.000000E+00  0.000000E+00  0.000000E+00                                                                                                                                                                                                                                                                                                                                                                                                                                                                                              
  8.000000E+02  1.250000E+02 -5.425000E+03 -1.251315E+08 -1.239415E+08 -1.249783E+08 -2.760006E-01 -1.049716E+04  1.311960E+00 -1.031384E-04  1.837651E-09 -8.986149E-05 -6.423398E-11 -2.443018E-06  2.274064E-10 -1.929981E-04  0.000000E+00  0.000000E+00  0.000000E+00  0.000000E+00  0.000000E+00  0.000000E+00  0.000000E+00                                                                                                                                                                                                                                                                                                                                                                                                                                                                                              
  9.350000E+02  1.250000E+02 -5.425000E+03 -1.250881E+08 -1.245736E+08 -1.256479E+08 -5.297463E-01 -1.652796E+04  1.521057E+00 -4.459127E-05  1.988467E-09 -9.310784E-05 -1.232886E-10 -3.846575E-06  2.636499E-10 -1.376971E-04  0.000000E+00  0.000000E+00  0.000000E+00  0.000000E+00  0.000000E+00  0.000000E+00  0.000000E+00                                                                                                                                                                                                                                                                                                                                                                                                                                                                                              
  1.185000E+03  1.250000E+02 -5.425000E+03 -1.250219E+08 -1.251630E+08 -1.263131E+08 -5.540818E-01 -1.810640E+04  1.288811E+00  1.222782E-05  2.248454E-09 -9.967149E-05 -1.289522E-10 -4.213926E-06  2.233939E-10 -8.744142E-05  0.000000E+00  0.000000E+00  0.000000E+00  0.000000E+00  0.000000E+00  0.000000E+00  0.000000E+00                                                                                                                                                                                                                                                                                                                                                                                                                                                                                              
  1.435000E+03  1.250000E+02 -5.425000E+03 -1.249801E+08 -1.255072E+08 -1.267126E+08 -4.283089E-01 -6.499518E+03  4.956451E-01  4.568199E-05  2.409319E-09 -1.044712E-04 -9.968091E-11 -1.512641E-06  8.591181E-11 -5.878679E-05  0.000000E+00  0.000000E+00  0.000000E+00  0.000000E+00  0.000000E+00  0.000000E+00  0.000000E+00                                                                                                                                                                                                                                                                                                                                                                                                                                                                                              
  1.250000E+02  1.250000E+02 -5.225000E+03 -1.211202E+08 -1.216724E+08 -1.227723E+08 -2.318829E+00  1.712258E+04 -4.073543E-01  4.786323E-05  1.412911E-09 -9.532475E-05 -5.396642E-10  3.984961E-06 -7.060809E-11 -4.746011E-05  0.000000E+00  0.000000E+00  0.000000E+00  0.000000E+00  0.000000E+00  0.000000E+00  0.000000E+00                                                                                                                                                                                                                                                                                                                                                                                                                                                                                              
  3.750000E+02  1.250000E+02 -5.225000E+03 -1.211382E+08 -1.212959E+08 -1.223660E+08 -2.460470E+00  4.570042E+04 -5.010784E-01  1.366799E-05  1.317893E-09 -9.273665E-05 -5.726284E-10  1.063592E-05 -8.685359E-11 -7.906733E-05  0.000000E+00  0.000000E+00  0.000000E+00  0.000000E+00  0.000000E+00  0.000000E+00  0.000000E+00                                                                                                                                                                                                                                                                                                                                                                                                                                                                                              
  6.250000E+02  1.250000E+02 -5.225000E+03 -1.211669E+08 -1.206249E+08 -1.216563E+08 -2.608822E+00  3.767840E+04  5.988336E-01 -4.697647E-05  1.307594E-09 -8.939022E-05 -6.071547E-10  8.768943E-06  1.037978E-10 -1.363654E-04  0.000000E+00  0.000000E+00  0.000000E+00  0.000000E+00  0.000000E+00  0.000000E+00  0.000000E+00                                                                                                                                                                                                                                                                                                                                                                                                                                                                                              
  7.600000E+02  1.250000E+02 -5.225000E+03 -1.211795E+08 -1.198850E+08 -1.209008E+08 -2.638383E+00  1.218824E+04  1.349219E+00 -1.121900E-04  1.358928E-09 -8.802782E-05 -6.140344E-10  2.836586E-06  2.338646E-10 -2.002164E-04  0.000000E+00  0.000000E+00  0.000000E+00  0.000000E+00  0.000000E+00  0.000000E+00  0.000000E+00                                                                                                                                                                                                                                                                                                                                                                                                                                                                                              
  7.800000E+02  1.250000E+02 -5.225000E+03 -1.211822E+08 -1.195730E+08 -1.205899E+08 -2.598693E+00  6.767029E-01  1.361844E+00 -1.394677E-04  1.374552E-09 -8.813530E-05 -6.047973E-10  1.574900E-10  2.360529E-10 -2.276017E-04  0.000000E+00  0.000000E+00  0.000000E+00  0.000000E+00  0.000000E+00  0.000000E+00  0.000000E+00                                                                                                                                                                                                                                                                                                                                                                                                                                                                                              
  8.000000E+02  1.250000E+02 -5.225000E+03 -1.211795E+08 -1.198850E+08 -1.209008E+08 -2.528802E+00 -1.218708E+04  1.568363E+00 -1.121900E-04  1.391880E-09 -8.802780E-05 -5.885315E-10 -2.836316E-06  2.718496E-10 -2.002164E-04  0.000000E+00  0.000000E+00  0.000000E+00  0.000000E+00  0.000000E+00  0.000000E+00  0.000000E+00                                                                                                                                                                                                                                                                                                                                                                                                                                                                                              
  9.350000E+02  1.250000E+02 -5.225000E+03 -1.211669E+08 -1.206249E+08 -1.216563E+08 -2.222803E+00 -3.767726E+04  1.974688E+00 -4.697675E-05  1.574269E-09 -8.939017E-05 -5.173159E-10 -8.768679E-06  3.422792E-10 -1.363653E-04  0.000000E+00  0.000000E+00  0.000000E+00  0.000000E+00  0.000000E+00  0.000000E+00  0.000000E+00                                                                                                                                                                                                                                                                                                                                                                                                                                                                                              
  1.185000E+03  1.250000E+02 -5.225000E+03 -1.211382E+08 -1.212959E+08 -1.223660E+08 -1.759137E+00 -4.569959E+04  1.767659E+00  1.366736E-05  1.901038E-09 -9.273656E-05 -4.094063E-10 -1.063573E-05  3.063943E-10 -7.906730E-05  0.000000E+00  0.000000E+00  0.000000E+00  0.000000E+00  0.000000E+00  0.000000E+00  0.000000E+00                                                                                                                                                                                                                                                                                                                                                                                                                                                                                              
  1.435000E+03  1.250000E+02 -5.225000E+03 -1.211202E+08 -1.216724E+08 -1.227723E+08 -1.453187E+00 -1.712230E+04  6.777978E-01  4.786246E-05  2.113079E-09 -9.532465E-05 -3.382021E-10 -3.984897E-06  1.174850E-10 -4.746007E-05  0.000000E+00  0.000000E+00  0.000000E+00  0.000000E+00  0.000000E+00  0.000000E+00  0.000000E+00                                                                                                                                                                                                                                                                                                                                                                                                                                                                                              
  1.250000E+02  1.250000E+02 -4.975000E+03 -1.163657E+08 -1.169638E+08 -1.178600E+08 -3.049836E+00  2.423521E+04 -5.329755E-01  5.183433E-05  5.175616E-10 -7.767211E-05 -7.097924E-10  5.640293E-06 -9.238243E-11 -2.583727E-05  0.000000E+00  0.000000E+00  0.000000E+00  0.000000E+00  0.000000E+00  0.000000E+00  0.000000E+00                                                                                                                                                                                                                                                                                                                                                                                                                                                                                              
  3.750000E+02  1.250000E+02 -4.975000E+03 -1.163747E+08 -1.165596E+08 -1.174391E+08 -3.083992E+00  6.333406E+04 -6.962444E-01  1.602487E-05  4.244913E-10 -7.622496E-05 -7.177415E-10  1.473982E-05 -1.206824E-10 -6.019967E-05  0.000000E+00  0.000000E+00  0.000000E+00  0.000000E+00  0.000000E+00  0.000000E+00  0.000000E+00                                                                                                                                                                                                                                                                                                                                                                                                                                                                                              
  6.250000E+02  1.250000E+02 -4.975000E+03 -1.163820E+08 -1.157922E+08 -1.166512E+08 -2.934635E+00  5.262143E+04  6.279150E-01 -5.111575E-05  4.375444E-10 -7.444162E-05 -6.829816E-10  1.224665E-05  1.088386E-10 -1.255569E-04  0.000000E+00  0.000000E+00  0.000000E+00  0.000000E+00  0.000000E+00  0.000000E+00  0.000000E+00                                                                                                                                                                                                                                                                                                                                                                                                                                                                                              
  7.600000E+02  1.250000E+02 -4.975000E+03 -1.164087E+08 -1.149279E+08 -1.157736E+08 -2.811093E+00  2.975392E+04  1.271531E+00 -1.283302E-04  5.057046E-10 -7.328724E-05 -6.542294E-10  6.924669E-06  2.203987E-10 -2.016170E-04  0.000000E+00  0.000000E+00  0.000000E+00  0.000000E+00  0.000000E+00  0.000000E+00  0.000000E+00                                                                                                                                                                                                                                                                                                                                                                                                                                                                                              
  7.800000E+02  1.250000E+02 -4.975000E+03 -1.164194E+08 -1.145513E+08 -1.153926E+08 -2.824931E+00  1.207677E+00  2.011071E+00 -1.619016E-04  5.247280E-10 -7.291089E-05 -6.574499E-10  2.810642E-10  3.485856E-10 -2.348119E-04  0.000000E+00  0.000000E+00  0.000000E+00  0.000000E+00  0.000000E+00  0.000000E+00  0.000000E+00                                                                                                                                                                                                                                                                                                                                                                                                                                                                                              
  8.000000E+02  1.250000E+02 -4.975000E+03 -1.164087E+08 -1.149279E+08 -1.157736E+08 -2.810226E+00 -2.975213E+04  2.209545E+00 -1.283303E-04  5.536456E-10 -7.328726E-05 -6.540277E-10 -6.924254E-06  3.829877E-10 -2.016170E-04  0.000000E+00  0.000000E+00  0.000000E+00  0.000000E+00  0.000000E+00  0.000000E+00  0.000000E+00                                                                                                                                                                                                                                                                                                                                                                                                                                                                                              
  9.350000E+02  1.250000E+02 -4.975000E+03 -1.163820E+08 -1.157922E+08 -1.166512E+08 -2.704787E+00 -5.261993E+04  2.538289E+00 -5.111608E-05  7.817456E-10 -7.444165E-05 -6.294888E-10 -1.224631E-05  4.399701E-10 -1.255570E-04  0.000000E+00  0.000000E+00  0.000000E+00  0.000000E+00  0.000000E+00  0.000000E+00  0.000000E+00                                                                                                                                                                                                                                                                                                                                                                                                                                                                                              
  1.185000E+03  1.250000E+02 -4.975000E+03 -1.163747E+08 -1.165596E+08 -1.174391E+08 -2.361094E+00 -6.333326E+04  2.497595E+00  1.602415E-05  1.206286E-09 -7.622502E-05 -5.495005E-10 -1.473963E-05  4.329165E-10 -6.019967E-05  0.000000E+00  0.000000E+00  0.000000E+00  0.000000E+00  0.000000E+00  0.000000E+00  0.000000E+00                                                                                                                                                                                                                                                                                                                                                                                                                                                                                              
  1.435000E+03  1.250000E+02 -4.975000E+03 -1.163657E+08 -1.169637E+08 -1.178600E+08 -2.032368E+00 -2.423496E+04  1.034156E+00  5.183346E-05  1.505593E-09 -7.767220E-05 -4.729957E-10 -5.640235E-06  1.792537E-10 -2.583724E-05  0.000000E+00  0.000000E+00  0.000000E+00  0.000000E+00  0.000000E+00  0.000000E+00  0.000000E+00                                                                                                                                                                                                                                                                                                                                                                                                                                                                                              
  1.250000E+02  1.250000E+02 -4.725000E+03 -1.119893E+08 -1.126106E+08 -1.129509E+08 -1.764108E+00  1.098995E+04 -6.419195E-01  5.384764E-05 -2.879599E-10 -2.948771E-05 -4.105632E-10  2.557705E-06 -1.112660E-10  2.435965E-05  0.000000E+00  0.000000E+00  0.000000E+00  0.000000E+00  0.000000E+00  0.000000E+00  0.000000E+00                                                                                                                                                                                                                                                                                                                                                                                                                                                                                              
  3.750000E+02  1.250000E+02 -4.725000E+03 -1.119205E+08 -1.121556E+08 -1.125156E+08 -1.944879E+00  5.135906E+04 -8.961663E-01  2.037132E-05 -3.834770E-10 -3.119665E-05 -4.526343E-10  1.195286E-05 -1.553355E-10 -1.082572E-05  0.000000E+00  0.000000E+00  0.000000E+00  0.000000E+00  0.000000E+00  0.000000E+00  0.000000E+00                                                                                                                                                                                                                                                                                                                                                                                                                                                                                              
  6.250000E+02  1.250000E+02 -4.725000E+03 -1.119107E+08 -1.112678E+08 -1.116442E+08 -1.998212E+00  4.559840E+04  6.712122E-01 -5.571777E-05 -3.259083E-10 -3.262445E-05 -4.650467E-10  1.061218E-05  1.163435E-10 -8.834255E-05  0.000000E+00  0.000000E+00  0.000000E+00  0.000000E+00  0.000000E+00  0.000000E+00  0.000000E+00                                                                                                                                                                                                                                                                                                                                                                                                                                                                                              
  7.600000E+02  1.250000E+02 -4.725000E+03 -1.118262E+08 -1.101946E+08 -1.105926E+08 -1.867483E+00 -1.394107E+04  8.306890E-01 -1.414038E-04 -2.177896E-10 -3.449041E-05 -4.346218E-10 -3.244524E-06  1.439861E-10 -1.758944E-04  0.000000E+00  0.000000E+00  0.000000E+00  0.000000E+00  0.000000E+00  0.000000E+00  0.000000E+00                                                                                                                                                                                                                                                                                                                                                                                                                                                                                              
  7.800000E+02  1.250000E+02 -4.725000E+03 -1.117893E+08 -1.097159E+08 -1.101264E+08 -1.811857E+00  2.214123E-01  2.629472E+00 -1.796972E-04 -1.942131E-10 -3.557280E-05 -4.216759E-10  5.152958E-11  4.557752E-10 -2.152702E-04  0.000000E+00  0.000000E+00  0.000000E+00  0.000000E+00  0.000000E+00  0.000000E+00  0.000000E+00                                                                                                                                                                                                                                                                                                                                                                                                                                                                                              
  8.000000E+02  1.250000E+02 -4.725000E+03 -1.118262E+08 -1.101946E+08 -1.105926E+08 -1.751279E+00  1.394101E+04  2.472853E+00 -1.414040E-04 -1.525506E-10 -3.449039E-05 -4.075776E-10  3.244510E-06  4.286279E-10 -1.758945E-04  0.000000E+00  0.000000E+00  0.000000E+00  0.000000E+00  0.000000E+00  0.000000E+00  0.000000E+00                                                                                                                                                                                                                                                                                                                                                                                                                                                                                              
  9.350000E+02  1.250000E+02 -4.725000E+03 -1.119107E+08 -1.112678E+08 -1.116442E+08 -1.583117E+00 -4.559885E+04  2.759177E+00 -5.571814E-05  1.028925E-10 -3.262451E-05 -3.684408E-10 -1.061228E-05  4.782573E-10 -8.834254E-05  0.000000E+00  0.000000E+00  0.000000E+00  0.000000E+00  0.000000E+00  0.000000E+00  0.000000E+00                                                                                                                                                                                                                                                                                                                                                                                                                                                                                              
  1.185000E+03  1.250000E+02 -4.725000E+03 -1.119205E+08 -1.121556E+08 -1.125156E+08 -1.513209E+00 -5.135968E+04  2.727078E+00  2.037057E-05  5.599770E-10 -3.119686E-05 -3.521712E-10 -1.195301E-05  4.726935E-10 -1.082573E-05  0.000000E+00  0.000000E+00  0.000000E+00  0.000000E+00  0.000000E+00  0.000000E+00  0.000000E+00                                                                                                                                                                                                                                                                                                                                                                                                                                                                                              