Title="TREACTMECH V1.0-OMP-MPI stress-strain.tec: Total Stresses (Pa), Strains"                                                                                                                                                                                                                                                                                                                                                                                                                                                                                                                                                                                                                                                                                                                                                 
Variables= "X(m)"     "Y(m)"      "Z(m)"    "Sigma_xx"    "Sigma_yy"    "Sigma_zz"    "Sigma_yz"    "Sigma_xz"    "Sigma_xy"   "Strain_xx"   "Strain_yy"   "Strain_zz"   "Strain_yz"   "Strain_xz"   "Strain_xy"  "Vol_Strain"   "E_fail_xx"   "E_fail_yy"   "E_fail_zz"  "E_fail_yz2"  "E_fail_xz2"  "E_fail_xy2"  "E_fail_vol"                                                                                                                                                                                                                                                                                                                                                                                                                                                                                                
Zone T= "5.18400000E+05 sec" I=     9 J=    10 K=    23 F=Point
  1.250000E+02  1.250000E+02 -5.425000E+03 -1.249717E+08 -1.254234E+08 -1.266374E+08 -3.674503E-03  5.292471E+03 -6.587886E-03  3.914210E-05  1.431254E-10 -1.052104E-04 -8.551721E-13  1.231724E-06 -1.141900E-12 -6.606815E-05  0.000000E+00  0.000000E+00  0.000000E+00  0.000000E+00  0.000000E+00  0.000000E+00  0.000000E+00                                                                                                                                                                                                                                                                                                                                                                                                                                                                                              
  3.750000E+02  1.250000E+02 -5.425000E+03 -1.250056E+08 -1.251178E+08 -1.262850E+08  2.975553E-02  1.463467E+04 -2.058931E-02  9.726501E-06  1.549883E-10 -1.011490E-04  6.925044E-12  3.405947E-06 -3.568813E-12 -9.142229E-05  0.000000E+00  0.000000E+00  0.000000E+00  0.000000E+00  0.000000E+00  0.000000E+00  0.000000E+00                                                                                                                                                                                                                                                                                                                                                                                                                                                                                              
  6.250000E+02  1.250000E+02 -5.425000E+03 -1.250589E+08 -1.246259E+08 -1.257287E+08  3.328552E-01  1.371952E+04  8.763721E-02 -3.752878E-05  1.778765E-10 -9.557032E-05  7.746584E-11  3.192961E-06  1.519045E-11 -1.330989E-04  0.000000E+00  0.000000E+00  0.000000E+00  0.000000E+00  0.000000E+00  0.000000E+00  0.000000E+00                                                                                                                                                                                                                                                                                                                                                                                                                                                                                              
  7.600000E+02  1.250000E+02 -5.425000E+03 -1.250964E+08 -1.240947E+08 -1.251652E+08  7.574386E-01  9.588036E+03  1.438638E-01 -8.681292E-05  1.899162E-10 -9.277352E-05  1.762797E-10  2.231436E-06  2.493639E-11 -1.795863E-04  0.000000E+00  0.000000E+00  0.000000E+00  0.000000E+00  0.000000E+00  0.000000E+00  0.000000E+00                                                                                                                                                                                                                                                                                                                                                                                                                                                                                              
  7.800000E+02  1.250000E+02 -5.425000E+03 -1.251072E+08 -1.238394E+08 -1.249077E+08  1.034881E+00  5.935998E-01  7.361726E-02 -1.098786E-04  1.865875E-10 -9.258705E-05  2.408492E-10  1.381493E-10  1.276033E-11 -2.024654E-04  0.000000E+00  0.000000E+00  0.000000E+00  0.000000E+00  0.000000E+00  0.000000E+00  0.000000E+00                                                                                                                                                                                                                                                                                                                                                                                                                                                                                              
  8.000000E+02  1.250000E+02 -5.425000E+03 -1.250964E+08 -1.240947E+08 -1.251652E+08  9.333361E-01 -9.586568E+03  1.765673E-01 -8.681274E-05  1.826806E-10 -9.277353E-05  2.172166E-10 -2.231095E-06  3.060500E-11 -1.795861E-04  0.000000E+00  0.000000E+00  0.000000E+00  0.000000E+00  0.000000E+00  0.000000E+00  0.000000E+00                                                                                                                                                                                                                                                                                                                                                                                                                                                                                              
  9.350000E+02  1.250000E+02 -5.425000E+03 -1.250589E+08 -1.246259E+08 -1.257287E+08  2.462953E-01 -1.371897E+04 -3.967370E-02 -3.752857E-05  1.494553E-10 -9.557034E-05  5.732063E-11 -3.192834E-06 -6.876774E-12 -1.330988E-04  0.000000E+00  0.000000E+00  0.000000E+00  0.000000E+00  0.000000E+00  0.000000E+00  0.000000E+00                                                                                                                                                                                                                                                                                                                                                                                                                                                                                              
  1.185000E+03  1.250000E+02 -5.425000E+03 -1.250056E+08 -1.251178E+08 -1.262850E+08 -9.404779E-02 -1.463468E+04 -3.049563E-02  9.726725E-06  1.005023E-10 -1.011490E-04 -2.188787E-11 -3.405949E-06 -5.285909E-12 -9.142217E-05  0.000000E+00  0.000000E+00  0.000000E+00  0.000000E+00  0.000000E+00  0.000000E+00  0.000000E+00                                                                                                                                                                                                                                                                                                                                                                                                                                                                                              
  1.435000E+03  1.250000E+02 -5.425000E+03 -1.249717E+08 -1.254234E+08 -1.266374E+08 -1.473535E-02 -5.292446E+03  2.450988E-02  3.914237E-05  8.015908E-11 -1.052105E-04 -3.429377E-12 -1.231718E-06  4.248379E-12 -6.606801E-05  0.000000E+00  0.000000E+00  0.000000E+00  0.000000E+00  0.000000E+00  0.000000E+00  0.000000E+00                                                                                                                                                                                                                                                                                                                                                                                                                                                                                              
  1.250000E+02  1.250000E+02 -5.225000E+03 -1.210712E+08 -1.215418E+08 -1.226923E+08 -1.083395E-01  1.397552E+04 -6.914237E-03  4.078471E-05  1.292182E-10 -9.971468E-05 -2.521400E-11  3.252541E-06 -1.198468E-12 -5.892985E-05  0.000000E+00  0.000000E+00  0.000000E+00  0.000000E+00  0.000000E+00  0.000000E+00  0.000000E+00                                                                                                                                                                                                                                                                                                                                                                                                                                                                                              
  3.750000E+02  1.250000E+02 -5.225000E+03 -1.210857E+08 -1.212113E+08 -1.223342E+08 -1.175988E-01  3.771574E+04  8.309383E-02  1.088119E-05  1.382617E-10 -9.732027E-05 -2.736892E-11  8.777633E-06  1.440293E-11 -8.643894E-05  0.000000E+00  0.000000E+00  0.000000E+00  0.000000E+00  0.000000E+00  0.000000E+00  0.000000E+00                                                                                                                                                                                                                                                                                                                                                                                                                                                                                              
  6.250000E+02  1.250000E+02 -5.225000E+03 -1.211105E+08 -1.206572E+08 -1.217434E+08 -2.977360E-01  3.188556E+04  2.371181E-01 -3.928845E-05  1.512565E-10 -9.414001E-05 -6.929249E-11  7.420770E-06  4.110047E-11 -1.334283E-04  0.000000E+00  0.000000E+00  0.000000E+00  0.000000E+00  0.000000E+00  0.000000E+00  0.000000E+00                                                                                                                                                                                                                                                                                                                                                                                                                                                                                              
  7.600000E+02  1.250000E+02 -5.225000E+03 -1.211199E+08 -1.200326E+08 -1.211037E+08 -5.250342E-01  1.000306E+04  1.617611E-01 -9.423039E-05  1.520829E-10 -9.282657E-05 -1.221919E-10  2.328026E-06  2.803859E-11 -1.870568E-04  0.000000E+00  0.000000E+00  0.000000E+00  0.000000E+00  0.000000E+00  0.000000E+00  0.000000E+00                                                                                                                                                                                                                                                                                                                                                                                                                                                                                              
  7.800000E+02  1.250000E+02 -5.225000E+03 -1.211231E+08 -1.197271E+08 -1.207995E+08 -5.910683E-01 -2.599232E-01  1.384426E-01 -1.209841E-04  1.455803E-10 -9.294266E-05 -1.375601E-10 -6.049227E-11  2.399671E-11 -2.139267E-04  0.000000E+00  0.000000E+00  0.000000E+00  0.000000E+00  0.000000E+00  0.000000E+00  0.000000E+00                                                                                                                                                                                                                                                                                                                                                                                                                                                                                              
  8.000000E+02  1.250000E+02 -5.225000E+03 -1.211199E+08 -1.200326E+08 -1.211037E+08 -5.234289E-01 -1.000424E+04  3.734553E-01 -9.423028E-05  1.417891E-10 -9.282656E-05 -1.218183E-10 -2.328300E-06  6.473224E-11 -1.870567E-04  0.000000E+00  0.000000E+00  0.000000E+00  0.000000E+00  0.000000E+00  0.000000E+00  0.000000E+00                                                                                                                                                                                                                                                                                                                                                                                                                                                                                              
  9.350000E+02  1.250000E+02 -5.225000E+03 -1.211105E+08 -1.206572E+08 -1.217434E+08 -2.277395E-01 -3.188622E+04  1.579147E-01 -3.928826E-05  1.220239E-10 -9.414004E-05 -5.300212E-11 -7.420924E-06  2.737189E-11 -1.334282E-04  0.000000E+00  0.000000E+00  0.000000E+00  0.000000E+00  0.000000E+00  0.000000E+00  0.000000E+00                                                                                                                                                                                                                                                                                                                                                                                                                                                                                              
  1.185000E+03  1.250000E+02 -5.225000E+03 -1.210857E+08 -1.212113E+08 -1.223342E+08 -5.565562E-02 -3.771584E+04  3.821915E-02  1.088143E-05  8.704363E-11 -9.732033E-05 -1.295281E-11 -8.777658E-06  6.624653E-12 -8.643882E-05  0.000000E+00  0.000000E+00  0.000000E+00  0.000000E+00  0.000000E+00  0.000000E+00  0.000000E+00                                                                                                                                                                                                                                                                                                                                                                                                                                                                                              
  1.435000E+03  1.250000E+02 -5.225000E+03 -1.210712E+08 -1.215418E+08 -1.226923E+08 -7.605573E-02 -1.397556E+04  2.175611E-02  4.078497E-05  6.719109E-11 -9.971474E-05 -1.770055E-11 -3.252551E-06  3.771059E-12 -5.892970E-05  0.000000E+00  0.000000E+00  0.000000E+00  0.000000E+00  0.000000E+00  0.000000E+00  0.000000E+00                                                                                                                                                                                                                                                                                                                                                                                                                                                                                              
  1.250000E+02  1.250000E+02 -4.975000E+03 -1.161643E+08 -1.166720E+08 -1.177724E+08 -1.735504E-01  2.244351E+04 -3.920960E-02  4.400664E-05  9.817035E-11 -9.536648E-05 -4.039062E-11  5.223308E-06 -6.796331E-12 -5.135975E-05  0.000000E+00  0.000000E+00  0.000000E+00  0.000000E+00  0.000000E+00  0.000000E+00  0.000000E+00                                                                                                                                                                                                                                                                                                                                                                                                                                                                                              
  3.750000E+02  1.250000E+02 -4.975000E+03 -1.161829E+08 -1.163289E+08 -1.174031E+08 -1.582645E-01  5.755917E+04 -1.071145E-01  1.266030E-05  1.080211E-10 -9.309278E-05 -3.683311E-11  1.339582E-05 -1.856651E-11 -8.043237E-05  0.000000E+00  0.000000E+00  0.000000E+00  0.000000E+00  0.000000E+00  0.000000E+00  0.000000E+00                                                                                                                                                                                                                                                                                                                                                                                                                                                                                              
  6.250000E+02  1.250000E+02 -4.975000E+03 -1.161969E+08 -1.157078E+08 -1.167471E+08  4.854259E-02  4.938554E+04 -1.990532E-01 -4.238204E-05  1.371492E-10 -9.006597E-05  1.129738E-11  1.149356E-05 -3.450256E-11 -1.324479E-04  0.000000E+00  0.000000E+00  0.000000E+00  0.000000E+00  0.000000E+00  0.000000E+00  0.000000E+00                                                                                                                                                                                                                                                                                                                                                                                                                                                                                              
  7.600000E+02  1.250000E+02 -4.975000E+03 -1.162315E+08 -1.149841E+08 -1.160019E+08  2.927599E-01  2.855181E+04 -1.442345E-01 -1.081095E-04  1.596463E-10 -8.821128E-05  6.813440E-11  6.644901E-06 -2.500065E-11 -1.963207E-04  0.000000E+00  0.000000E+00  0.000000E+00  0.000000E+00  0.000000E+00  0.000000E+00  0.000000E+00                                                                                                                                                                                                                                                                                                                                                                                                                                                                                              
  7.800000E+02  1.250000E+02 -4.975000E+03 -1.162398E+08 -1.146139E+08 -1.156271E+08  3.705413E-01  1.124356E+00 -3.148406E-01 -1.409119E-04  1.630606E-10 -8.780906E-05  8.623656E-11  2.616728E-10 -5.457238E-11 -2.287208E-04  0.000000E+00  0.000000E+00  0.000000E+00  0.000000E+00  0.000000E+00  0.000000E+00  0.000000E+00                                                                                                                                                                                                                                                                                                                                                                                                                                                                                              
  8.000000E+02  1.250000E+02 -4.975000E+03 -1.162315E+08 -1.149841E+08 -1.160019E+08  3.094265E-01 -2.855117E+04 -7.973654E-01 -1.081094E-04  1.563455E-10 -8.821128E-05  7.201325E-11 -6.644752E-06 -1.382100E-10 -1.963205E-04  0.000000E+00  0.000000E+00  0.000000E+00  0.000000E+00  0.000000E+00  0.000000E+00  0.000000E+00                                                                                                                                                                                                                                                                                                                                                                                                                                                                                              
  9.350000E+02  1.250000E+02 -4.975000E+03 -1.161969E+08 -1.157078E+08 -1.167471E+08  3.133500E-02 -4.938535E+04 -3.403755E-01 -4.238186E-05  1.073970E-10 -9.006598E-05  7.292636E-12 -1.149352E-05 -5.899842E-11 -1.324477E-04  0.000000E+00  0.000000E+00  0.000000E+00  0.000000E+00  0.000000E+00  0.000000E+00  0.000000E+00                                                                                                                                                                                                                                                                                                                                                                                                                                                                                              
  1.185000E+03  1.250000E+02 -4.975000E+03 -1.161828E+08 -1.163289E+08 -1.174031E+08 -1.168056E-01 -5.755898E+04 -1.380086E-02  1.266054E-05  5.555125E-11 -9.309282E-05 -2.718431E-11 -1.339578E-05 -2.392149E-12 -8.043223E-05  0.000000E+00  0.000000E+00  0.000000E+00  0.000000E+00  0.000000E+00  0.000000E+00  0.000000E+00                                                                                                                                                                                                                                                                                                                                                                                                                                                                                              
  1.435000E+03  1.250000E+02 -4.975000E+03 -1.161642E+08 -1.166720E+08 -1.177724E+08 -8.712835E-02 -2.244346E+04 -1.230541E-02  4.400689E-05  4.160614E-11 -9.536653E-05 -2.027750E-11 -5.223295E-06 -2.132938E-12 -5.135960E-05  0.000000E+00  0.000000E+00  0.000000E+00  0.000000E+00  0.000000E+00  0.000000E+00  0.000000E+00                                                                                                                                                                                                                                                                                                                                                                                                                                                                                              
  1.250000E+02  1.250000E+02 -4.725000E+03 -1.113075E+08 -1.118486E+08 -1.128669E+08 -2.601683E-01  1.945420E+04 -4.255180E-02  4.689312E-05  5.076768E-11 -8.825532E-05 -6.054932E-11  4.527603E-06 -7.375646E-12 -4.136215E-05  0.000000E+00  0.000000E+00  0.000000E+00  0.000000E+00  0.000000E+00  0.000000E+00  0.000000E+00                                                                                                                                                                                                                                                                                                                                                                                                                                                                                              
  3.750000E+02  1.250000E+02 -4.725000E+03 -1.112730E+08 -1.114741E+08 -1.124762E+08 -3.279821E-01  7.665382E+04 -1.946789E-01  1.743067E-05  5.842991E-11 -8.684488E-05 -7.633171E-11  1.783975E-05 -3.374434E-11 -6.941415E-05  0.000000E+00  0.000000E+00  0.000000E+00  0.000000E+00  0.000000E+00  0.000000E+00  0.000000E+00                                                                                                                                                                                                                                                                                                                                                                                                                                                                                              
  6.250000E+02  1.250000E+02 -4.725000E+03 -1.113467E+08 -1.107928E+08 -1.117417E+08 -4.742984E-01  7.438338E+04 -4.796777E-01 -4.800038E-05  9.121823E-11 -8.223332E-05 -1.103841E-10  1.731134E-05 -8.314414E-11 -1.302336E-04  0.000000E+00  0.000000E+00  0.000000E+00  0.000000E+00  0.000000E+00  0.000000E+00  0.000000E+00                                                                                                                                                                                                                                                                                                                                                                                                                                                                                              
  7.600000E+02  1.250000E+02 -4.725000E+03 -1.112974E+08 -1.098741E+08 -1.108037E+08 -6.008359E-01 -1.126423E+04 -1.835103E-01 -1.233534E-04  1.284397E-10 -8.056063E-05 -1.398334E-10 -2.621540E-06 -3.180845E-11 -2.039139E-04  0.000000E+00  0.000000E+00  0.000000E+00  0.000000E+00  0.000000E+00  0.000000E+00  0.000000E+00                                                                                                                                                                                                                                                                                                                                                                                                                                                                                              
  7.800000E+02  1.250000E+02 -4.725000E+03 -1.112704E+08 -1.094082E+08 -1.103504E+08 -6.471569E-01 -5.228097E-01 -3.724653E-01 -1.613867E-04  1.472992E-10 -8.165719E-05 -1.506137E-10 -1.216742E-10 -6.456065E-11 -2.430438E-04  0.000000E+00  0.000000E+00  0.000000E+00  0.000000E+00  0.000000E+00  0.000000E+00  0.000000E+00                                                                                                                                                                                                                                                                                                                                                                                                                                                                                              
  8.000000E+02  1.250000E+02 -4.725000E+03 -1.112974E+08 -1.098741E+08 -1.108037E+08 -6.108963E-01  1.126185E+04 -1.836048E+00 -1.233533E-04  1.426467E-10 -8.056068E-05 -1.421747E-10  2.620986E-06 -3.182483E-10 -2.039138E-04  0.000000E+00  0.000000E+00  0.000000E+00  0.000000E+00  0.000000E+00  0.000000E+00  0.000000E+00                                                                                                                                                                                                                                                                                                                                                                                                                                                                                              
  9.350000E+02  1.250000E+02 -4.725000E+03 -1.113467E+08 -1.107928E+08 -1.117417E+08 -3.803198E-01 -7.438442E+04 -7.047805E-01 -4.800019E-05  7.271282E-11 -8.223341E-05 -8.851233E-11 -1.731159E-05 -1.221620E-10 -1.302335E-04  0.000000E+00  0.000000E+00  0.000000E+00  0.000000E+00  0.000000E+00  0.000000E+00  0.000000E+00                                                                                                                                                                                                                                                                                                                                                                                                                                                                                              
  1.185000E+03  1.250000E+02 -4.725000E+03 -1.112730E+08 -1.114741E+08 -1.124762E+08 -1.803676E-01 -7.665375E+04 -7.023656E-03  1.743091E-05  1.442268E-11 -8.684496E-05 -4.197720E-11 -1.783973E-05 -1.217434E-12 -6.941403E-05  0.000000E+00  0.000000E+00  0.000000E+00  0.000000E+00  0.000000E+00  0.000000E+00  0.000000E+00                                                                                                                                                                                                                                                                                                                                                                                                                                                                                              