Title="TOUGHREACT V3.30-OMP flowdata.tec: P,T,SAT & Other Variables"                                                                                                                                                                                                                                                                                                                                                                                                                                                                                                                                                                                                                                                                                                                                                            
Variables= "X(m)"     "Y(m)"      "Z(m)"       "P(Pa)"        "T(C)"      "SatGas"      "SatLiq"          "X1"          "X2"    "Pcap(Pa)"  "DGas_kg/m3"  "DLiq_kg/m3"    "Porosity"  "Perm_X(m2)"  "Perm_Y(m2)"  "Perm_Z(m2)"    "Krel_Gas"    "Krel_Liq"                                                                                                                                                                                                                                                                                                                                                                                                                                                                                                                                                                      
Zone T= "1.00000000E+10 sec" I=     9 J=    10 K=    23 F=Point
  1.250000E+02  1.250000E+02 -5.425000E+03  5.590650E+07  2.032680E+02  0.000000E+00  1.000000E+00  1.000000E+00  0.000000E+00  0.000000E+00  8.398630E+00  8.975389E+02  1.977328E-01  1.000000E-16  1.000000E-16  1.000000E-16  0.000000E+00  1.000000E+00                                                                                                                                                                                                                                                                                                                                                                                                                                                                                                                                                                    
  3.750000E+02  1.250000E+02 -5.425000E+03  5.590650E+07  2.032672E+02  0.000000E+00  1.000000E+00  1.000000E+00  0.000000E+00  0.000000E+00  8.398491E+00  8.975397E+02  1.977328E-01  1.000000E-16  1.000000E-16  1.000000E-16  0.000000E+00  1.000000E+00                                                                                                                                                                                                                                                                                                                                                                                                                                                                                                                                                                    
  6.250000E+02  1.250000E+02 -5.425000E+03  5.590651E+07  2.032663E+02  0.000000E+00  1.000000E+00  1.000000E+00  0.000000E+00  0.000000E+00  8.398333E+00  8.975406E+02  1.977328E-01  1.000000E-16  1.000000E-16  1.000000E-16  0.000000E+00  1.000000E+00                                                                                                                                                                                                                                                                                                                                                                                                                                                                                                                                                                    
  7.600000E+02  1.250000E+02 -5.425000E+03  5.590651E+07  2.032662E+02  0.000000E+00  1.000000E+00  1.000000E+00  0.000000E+00  0.000000E+00  8.398323E+00  8.975407E+02  1.977328E-01  1.000000E-16  1.000000E-16  1.000000E-16  0.000000E+00  1.000000E+00                                                                                                                                                                                                                                                                                                                                                                                                                                                                                                                                                                    
  7.800000E+02  1.250000E+02 -5.425000E+03  5.590651E+07  2.032662E+02  0.000000E+00  1.000000E+00  1.000000E+00  0.000000E+00  0.000000E+00  8.398323E+00  8.975407E+02  1.977328E-01  1.000000E-16  1.000000E-16  1.000000E-16  0.000000E+00  1.000000E+00                                                                                                                                                                                                                                                                                                                                                                                                                                                                                                                                                                    
  8.000000E+02  1.250000E+02 -5.425000E+03  5.590651E+07  2.032662E+02  0.000000E+00  1.000000E+00  1.000000E+00  0.000000E+00  0.000000E+00  8.398323E+00  8.975407E+02  1.977328E-01  1.000000E-16  1.000000E-16  1.000000E-16  0.000000E+00  1.000000E+00                                                                                                                                                                                                                                                                                                                                                                                                                                                                                                                                                                    
  9.350000E+02  1.250000E+02 -5.425000E+03  5.590651E+07  2.032663E+02  0.000000E+00  1.000000E+00  1.000000E+00  0.000000E+00  0.000000E+00  8.398333E+00  8.975406E+02  1.977328E-01  1.000000E-16  1.000000E-16  1.000000E-16  0.000000E+00  1.000000E+00                                                                                                                                                                                                                                                                                                                                                                                                                                                                                                                                                                    
  1.185000E+03  1.250000E+02 -5.425000E+03  5.590650E+07  2.032672E+02  0.000000E+00  1.000000E+00  1.000000E+00  0.000000E+00  0.000000E+00  8.398492E+00  8.975397E+02  1.977328E-01  1.000000E-16  1.000000E-16  1.000000E-16  0.000000E+00  1.000000E+00                                                                                                                                                                                                                                                                                                                                                                                                                                                                                                                                                                    
  1.435000E+03  1.250000E+02 -5.425000E+03  5.590650E+07  2.032680E+02  0.000000E+00  1.000000E+00  1.000000E+00  0.000000E+00  0.000000E+00  8.398630E+00  8.975389E+02  1.977328E-01  1.000000E-16  1.000000E-16  1.000000E-16  0.000000E+00  1.000000E+00                                                                                                                                                                                                                                                                                                                                                                                                                                                                                                                                                                    
  1.250000E+02  1.250000E+02 -5.225000E+03  5.414436E+07  2.002607E+02  0.000000E+00  1.000000E+00  1.000000E+00  0.000000E+00  0.000000E+00  7.905696E+00  8.994879E+02  1.979187E-01  1.000000E-16  1.000000E-16  1.000000E-16  0.000000E+00  1.000000E+00                                                                                                                                                                                                                                                                                                                                                                                                                                                                                                                                                                    
  3.750000E+02  1.250000E+02 -5.225000E+03  5.414436E+07  2.002595E+02  0.000000E+00  1.000000E+00  1.000000E+00  0.000000E+00  0.000000E+00  7.905511E+00  8.994890E+02  1.979187E-01  1.000000E-16  1.000000E-16  1.000000E-16  0.000000E+00  1.000000E+00                                                                                                                                                                                                                                                                                                                                                                                                                                                                                                                                                                    
  6.250000E+02  1.250000E+02 -5.225000E+03  5.414436E+07  2.002581E+02  0.000000E+00  1.000000E+00  1.000000E+00  0.000000E+00  0.000000E+00  7.905291E+00  8.994904E+02  1.979187E-01  1.000000E-16  1.000000E-16  1.000000E-16  0.000000E+00  1.000000E+00                                                                                                                                                                                                                                                                                                                                                                                                                                                                                                                                                                    
  7.600000E+02  1.250000E+02 -5.225000E+03  5.414436E+07  2.002580E+02  0.000000E+00  1.000000E+00  1.000000E+00  0.000000E+00  0.000000E+00  7.905277E+00  8.994905E+02  1.979187E-01  1.000000E-16  1.000000E-16  1.000000E-16  0.000000E+00  1.000000E+00                                                                                                                                                                                                                                                                                                                                                                                                                                                                                                                                                                    
  7.800000E+02  1.250000E+02 -5.225000E+03  5.414436E+07  2.002580E+02  0.000000E+00  1.000000E+00  1.000000E+00  0.000000E+00  0.000000E+00  7.905276E+00  8.994905E+02  1.979187E-01  1.000000E-16  1.000000E-16  1.000000E-16  0.000000E+00  1.000000E+00                                                                                                                                                                                                                                                                                                                                                                                                                                                                                                                                                                    
  8.000000E+02  1.250000E+02 -5.225000E+03  5.414436E+07  2.002580E+02  0.000000E+00  1.000000E+00  1.000000E+00  0.000000E+00  0.000000E+00  7.905277E+00  8.994905E+02  1.979187E-01  1.000000E-16  1.000000E-16  1.000000E-16  0.000000E+00  1.000000E+00                                                                                                                                                                                                                                                                                                                                                                                                                                                                                                                                                                    
  9.350000E+02  1.250000E+02 -5.225000E+03  5.414436E+07  2.002581E+02  0.000000E+00  1.000000E+00  1.000000E+00  0.000000E+00  0.000000E+00  7.905291E+00  8.994904E+02  1.979187E-01  1.000000E-16  1.000000E-16  1.000000E-16  0.000000E+00  1.000000E+00                                                                                                                                                                                                                                                                                                                                                                                                                                                                                                                                                                    
  1.185000E+03  1.250000E+02 -5.225000E+03  5.414436E+07  2.002595E+02  0.000000E+00  1.000000E+00  1.000000E+00  0.000000E+00  0.000000E+00  7.905511E+00  8.994890E+02  1.979187E-01  1.000000E-16  1.000000E-16  1.000000E-16  0.000000E+00  1.000000E+00                                                                                                                                                                                                                                                                                                                                                                                                                                                                                                                                                                    
  1.435000E+03  1.250000E+02 -5.225000E+03  5.414436E+07  2.002607E+02  0.000000E+00  1.000000E+00  1.000000E+00  0.000000E+00  0.000000E+00  7.905696E+00  8.994879E+02  1.979187E-01  1.000000E-16  1.000000E-16  1.000000E-16  0.000000E+00  1.000000E+00                                                                                                                                                                                                                                                                                                                                                                                                                                                                                                                                                                    
  1.250000E+02  1.250000E+02 -4.975000E+03  5.193631E+07  1.964750E+02  0.000000E+00  1.000000E+00  1.000000E+00  0.000000E+00  0.000000E+00  7.318898E+00  9.019325E+02  1.981478E-01  1.000000E-16  1.000000E-16  1.000000E-16  0.000000E+00  1.000000E+00                                                                                                                                                                                                                                                                                                                                                                                                                                                                                                                                                                    
  3.750000E+02  1.250000E+02 -4.975000E+03  5.193631E+07  1.964726E+02  0.000000E+00  1.000000E+00  1.000000E+00  0.000000E+00  0.000000E+00  7.318533E+00  9.019349E+02  1.981478E-01  1.000000E-16  1.000000E-16  1.000000E-16  0.000000E+00  1.000000E+00                                                                                                                                                                                                                                                                                                                                                                                                                                                                                                                                                                    
  6.250000E+02  1.250000E+02 -4.975000E+03  5.193632E+07  1.964694E+02  0.000000E+00  1.000000E+00  1.000000E+00  0.000000E+00  0.000000E+00  7.318050E+00  9.019380E+02  1.981478E-01  1.000000E-16  1.000000E-16  1.000000E-16  0.000000E+00  1.000000E+00                                                                                                                                                                                                                                                                                                                                                                                                                                                                                                                                                                    
  7.600000E+02  1.250000E+02 -4.975000E+03  5.193632E+07  1.964691E+02  0.000000E+00  1.000000E+00  1.000000E+00  0.000000E+00  0.000000E+00  7.318015E+00  9.019383E+02  1.981478E-01  1.000000E-16  1.000000E-16  1.000000E-16  0.000000E+00  1.000000E+00                                                                                                                                                                                                                                                                                                                                                                                                                                                                                                                                                                    
  7.800000E+02  1.250000E+02 -4.975000E+03  5.193632E+07  1.964691E+02  0.000000E+00  1.000000E+00  1.000000E+00  0.000000E+00  0.000000E+00  7.318013E+00  9.019383E+02  1.981478E-01  1.000000E-16  1.000000E-16  1.000000E-16  0.000000E+00  1.000000E+00                                                                                                                                                                                                                                                                                                                                                                                                                                                                                                                                                                    
  8.000000E+02  1.250000E+02 -4.975000E+03  5.193632E+07  1.964691E+02  0.000000E+00  1.000000E+00  1.000000E+00  0.000000E+00  0.000000E+00  7.318015E+00  9.019383E+02  1.981478E-01  1.000000E-16  1.000000E-16  1.000000E-16  0.000000E+00  1.000000E+00                                                                                                                                                                                                                                                                                                                                                                                                                                                                                                                                                                    
  9.350000E+02  1.250000E+02 -4.975000E+03  5.193632E+07  1.964694E+02  0.000000E+00  1.000000E+00  1.000000E+00  0.000000E+00  0.000000E+00  7.318050E+00  9.019380E+02  1.981478E-01  1.000000E-16  1.000000E-16  1.000000E-16  0.000000E+00  1.000000E+00                                                                                                                                                                                                                                                                                                                                                                                                                                                                                                                                                                    
  1.185000E+03  1.250000E+02 -4.975000E+03  5.193631E+07  1.964726E+02  0.000000E+00  1.000000E+00  1.000000E+00  0.000000E+00  0.000000E+00  7.318533E+00  9.019349E+02  1.981478E-01  1.000000E-16  1.000000E-16  1.000000E-16  0.000000E+00  1.000000E+00                                                                                                                                                                                                                                                                                                                                                                                                                                                                                                                                                                    
  1.435000E+03  1.250000E+02 -4.975000E+03  5.193631E+07  1.964750E+02  0.000000E+00  1.000000E+00  1.000000E+00  0.000000E+00  0.000000E+00  7.318898E+00  9.019325E+02  1.981478E-01  1.000000E-16  1.000000E-16  1.000000E-16  0.000000E+00  1.000000E+00                                                                                                                                                                                                                                                                                                                                                                                                                                                                                                                                                                    
  1.250000E+02  1.250000E+02 -4.725000E+03  4.972137E+07  1.911455E+02  0.000000E+00  1.000000E+00  1.000000E+00  0.000000E+00  0.000000E+00  6.553118E+00  9.058532E+02  1.983636E-01  1.000000E-16  1.000000E-16  1.000000E-16  0.000000E+00  1.000000E+00                                                                                                                                                                                                                                                                                                                                                                                                                                                                                                                                                                    
  3.750000E+02  1.250000E+02 -4.725000E+03  4.972138E+07  1.911405E+02  0.000000E+00  1.000000E+00  1.000000E+00  0.000000E+00  0.000000E+00  6.552430E+00  9.058581E+02  1.983636E-01  1.000000E-16  1.000000E-16  1.000000E-16  0.000000E+00  1.000000E+00                                                                                                                                                                                                                                                                                                                                                                                                                                                                                                                                                                    
  6.250000E+02  1.250000E+02 -4.725000E+03  4.972138E+07  1.911328E+02  0.000000E+00  1.000000E+00  1.000000E+00  0.000000E+00  0.000000E+00  6.551374E+00  9.058655E+02  1.983635E-01  1.000000E-16  1.000000E-16  1.000000E-16  0.000000E+00  1.000000E+00                                                                                                                                                                                                                                                                                                                                                                                                                                                                                                                                                                    
  7.600000E+02  1.250000E+02 -4.725000E+03  4.972139E+07  1.911318E+02  0.000000E+00  1.000000E+00  1.000000E+00  0.000000E+00  0.000000E+00  6.551235E+00  9.058665E+02  1.983635E-01  1.000000E-16  1.000000E-16  1.000000E-16  0.000000E+00  1.000000E+00                                                                                                                                                                                                                                                                                                                                                                                                                                                                                                                                                                    
  7.800000E+02  1.250000E+02 -4.725000E+03  4.972139E+07  1.911318E+02  0.000000E+00  1.000000E+00  1.000000E+00  0.000000E+00  0.000000E+00  6.551228E+00  9.058665E+02  1.983635E-01  1.000000E-16  1.000000E-16  1.000000E-16  0.000000E+00  1.000000E+00                                                                                                                                                                                                                                                                                                                                                                                                                                                                                                                                                                    
  8.000000E+02  1.250000E+02 -4.725000E+03  4.972139E+07  1.911318E+02  0.000000E+00  1.000000E+00  1.000000E+00  0.000000E+00  0.000000E+00  6.551235E+00  9.058665E+02  1.983635E-01  1.000000E-16  1.000000E-16  1.000000E-16  0.000000E+00  1.000000E+00                                                                                                                                                                                                                                                                                                                                                                                                                                                                                                                                                                    
  9.350000E+02  1.250000E+02 -4.725000E+03  4.972138E+07  1.911328E+02  0.000000E+00  1.000000E+00  1.000000E+00  0.000000E+00  0.000000E+00  6.551374E+00  9.058655E+02  1.983635E-01  1.000000E-16  1.000000E-16  1.000000E-16  0.000000E+00  1.000000E+00                                                                                                                                                                                                                                                                                                                                                                                                                                                                                                                                                                    
  1.185000E+03  1.250000E+02 -4.725000E+03  4.972138E+07  1.911405E+02  0.000000E+00  1.000000E+00  1.000000E+00  0.000000E+00  0.000000E+00  6.552430E+00  9.058581E+02  1.983636E-01  1.000000E-16  1.000000E-16  1.000000E-16  0.000000E+00  1.000000E+00                                                                                                                                                                                                                                                                                                                                                                                                                                                                                                                                                                    