Title="TOUGHREACT V3.30-OMP flowvector.tec: Liq & Gas Fluxes (kg/s/m^2), Pore Velocities (m/s), & Heat Fluxes (J/s/m2)"                                                                                                                                                                                                                                                                                                                                                                                                                                                                                                                                                                                                                                                                                                         
Variables= "X(m)"     "Y(m)"      "Z(m)"     "FluxLiq"   "FluxLiq_X"   "FluxLiq_Y"   "FluxLiq_Z"   "PorVelLiq"  "PorVelLiqX"  "PorVelLiqY"  "PorVelLiqZ"     "FluxGas"   "FluxGas_X"   "FluxGas_Y"   "FluxGas_Z"   "PorVelGas"  "PorVelGasX"  "PorVelGasY"  "PorVelGasZ"    "HeatFlux"  "HeatFlux_X"  "HeatFlux_Y"  "HeatFlux_Z"                                                                                                                                                                                                                                                                                                                                                                                                                                                                                                
Zone T= "5.00000000E-02 sec" I=     9 J=    10 K=    23 F=Point
  1.250000E+02  1.250000E+02 -5.425000E+03  8.111643E-10 -5.317166E-12  1.909101E-15 -8.111469E-10  4.558045E-12 -2.990843E-14  1.073847E-17 -4.557947E-12  0.000000E+00  0.000000E+00  0.000000E+00  0.000000E+00  0.000000E+00  0.000000E+00  0.000000E+00  0.000000E+00  1.278053E-02  3.605712E-06 -3.917296E-10  1.278053E-02                                                                                                                                                                                                                                                                                                                                                                                                                                                                                              
  3.750000E+02  1.250000E+02 -5.425000E+03  8.139928E-10 -1.134662E-11  4.683183E-16 -8.139137E-10  4.573934E-12 -6.382334E-14  2.634234E-18 -4.573489E-12  0.000000E+00  0.000000E+00  0.000000E+00  0.000000E+00  0.000000E+00  0.000000E+00  0.000000E+00  0.000000E+00  1.278235E-02  7.779186E-06  1.129236E-09  1.278235E-02                                                                                                                                                                                                                                                                                                                                                                                                                                                                                              
  6.250000E+02  1.250000E+02 -5.425000E+03  8.175671E-10 -6.723836E-12 -1.018183E-15 -8.175394E-10  4.594012E-12 -3.782074E-14 -5.727151E-18 -4.593857E-12  0.000000E+00  0.000000E+00  0.000000E+00  0.000000E+00  0.000000E+00  0.000000E+00  0.000000E+00  0.000000E+00  1.278487E-02  4.651401E-06 -2.884866E-09  1.278487E-02                                                                                                                                                                                                                                                                                                                                                                                                                                                                                              
  7.600000E+02  1.250000E+02 -5.425000E+03  8.177911E-10 -9.271986E-13 -3.460658E-17 -8.177906E-10  4.595271E-12 -5.215374E-15 -1.946576E-19 -4.595268E-12  0.000000E+00  0.000000E+00  0.000000E+00  0.000000E+00  0.000000E+00  0.000000E+00  0.000000E+00  0.000000E+00  1.278505E-02  6.355917E-07 -9.878395E-10  1.278505E-02                                                                                                                                                                                                                                                                                                                                                                                                                                                                                              
  7.800000E+02  1.250000E+02 -5.425000E+03  8.178031E-10 -3.104603E-15  3.335452E-17 -8.178031E-10  4.595338E-12 -1.746300E-17  1.876149E-19 -4.595338E-12  0.000000E+00  0.000000E+00  0.000000E+00  0.000000E+00  0.000000E+00  0.000000E+00  0.000000E+00  0.000000E+00  1.278506E-02 -1.612464E-09 -5.759694E-10  1.278506E-02                                                                                                                                                                                                                                                                                                                                                                                                                                                                                              
  8.000000E+02  1.250000E+02 -5.425000E+03  8.177909E-10  9.224281E-13 -2.225169E-17 -8.177903E-10  4.595269E-12  5.188541E-15 -1.251629E-19 -4.595266E-12  0.000000E+00  0.000000E+00  0.000000E+00  0.000000E+00  0.000000E+00  0.000000E+00  0.000000E+00  0.000000E+00  1.278505E-02 -6.433149E-07 -9.764010E-10  1.278505E-02                                                                                                                                                                                                                                                                                                                                                                                                                                                                                              
  9.350000E+02  1.250000E+02 -5.425000E+03  8.175645E-10  6.722629E-12 -1.225749E-15 -8.175368E-10  4.593998E-12  3.781395E-14 -6.894682E-18 -4.593842E-12  0.000000E+00  0.000000E+00  0.000000E+00  0.000000E+00  0.000000E+00  0.000000E+00  0.000000E+00  0.000000E+00  1.278487E-02 -4.653760E-06  5.580619E-10  1.278487E-02                                                                                                                                                                                                                                                                                                                                                                                                                                                                                              
  1.185000E+03  1.250000E+02 -5.425000E+03  8.139968E-10  1.134617E-11 -1.622418E-15 -8.139177E-10  4.573957E-12  6.382081E-14 -9.125906E-18 -4.573512E-12  0.000000E+00  0.000000E+00  0.000000E+00  0.000000E+00  0.000000E+00  0.000000E+00  0.000000E+00  0.000000E+00  1.278235E-02 -7.777201E-06 -4.554431E-10  1.278234E-02                                                                                                                                                                                                                                                                                                                                                                                                                                                                                              
  1.435000E+03  1.250000E+02 -5.425000E+03  8.111670E-10  5.316258E-12  1.322157E-15 -8.111496E-10  4.558060E-12  2.990332E-14  7.436978E-18 -4.557962E-12  0.000000E+00  0.000000E+00  0.000000E+00  0.000000E+00  0.000000E+00  0.000000E+00  0.000000E+00  0.000000E+00  1.278052E-02 -3.607479E-06  1.098005E-09  1.278052E-02                                                                                                                                                                                                                                                                                                                                                                                                                                                                                              
  1.250000E+02  1.250000E+02 -5.225000E+03  2.903717E-09 -5.126665E-12  6.473523E-16 -2.903712E-09  1.628806E-11 -2.880674E-14  3.637476E-18 -1.628804E-11  0.000000E+00  0.000000E+00  0.000000E+00  0.000000E+00  0.000000E+00  0.000000E+00  0.000000E+00  0.000000E+00  4.607512E-02  7.207449E-06 -1.702042E-09  4.607512E-02                                                                                                                                                                                                                                                                                                                                                                                                                                                                                              
  3.750000E+02  1.250000E+02 -5.225000E+03  2.913387E-09 -1.122740E-11  4.451108E-16 -2.913365E-09  1.634228E-11 -6.308674E-14  2.501077E-18 -1.634215E-11  0.000000E+00  0.000000E+00  0.000000E+00  0.000000E+00  0.000000E+00  0.000000E+00  0.000000E+00  0.000000E+00  4.608422E-02  1.590995E-05 -2.305182E-09  4.608422E-02                                                                                                                                                                                                                                                                                                                                                                                                                                                                                              
  6.250000E+02  1.250000E+02 -5.225000E+03  2.926908E-09 -6.832527E-12  2.887744E-15 -2.926900E-09  1.641808E-11 -3.839193E-14  1.622621E-17 -1.641804E-11  0.000000E+00  0.000000E+00  0.000000E+00  0.000000E+00  0.000000E+00  0.000000E+00  0.000000E+00  0.000000E+00  4.609796E-02  9.756106E-06  8.426814E-10  4.609796E-02                                                                                                                                                                                                                                                                                                                                                                                                                                                                                              
  7.600000E+02  1.250000E+02 -5.225000E+03  2.928143E-09 -9.783986E-13  1.527724E-15 -2.928142E-09  1.642500E-11 -5.497612E-15  8.584265E-18 -1.642500E-11  0.000000E+00  0.000000E+00  0.000000E+00  0.000000E+00  0.000000E+00  0.000000E+00  0.000000E+00  0.000000E+00  4.609941E-02  1.401406E-06 -1.939855E-10  4.609941E-02                                                                                                                                                                                                                                                                                                                                                                                                                                                                                              
  7.800000E+02  1.250000E+02 -5.225000E+03  2.928205E-09 -1.572087E-15  1.721308E-15 -2.928205E-09  1.642535E-11 -8.833540E-18  9.672010E-18 -1.642535E-11  0.000000E+00  0.000000E+00  0.000000E+00  0.000000E+00  0.000000E+00  0.000000E+00  0.000000E+00  0.000000E+00  4.609948E-02 -1.136189E-08  1.452320E-10  4.609948E-02                                                                                                                                                                                                                                                                                                                                                                                                                                                                                              
  8.000000E+02  1.250000E+02 -5.225000E+03  2.928143E-09  9.777170E-13  2.073951E-15 -2.928142E-09  1.642500E-11  5.493782E-15  1.165351E-17 -1.642500E-11  0.000000E+00  0.000000E+00  0.000000E+00  0.000000E+00  0.000000E+00  0.000000E+00  0.000000E+00  0.000000E+00  4.609941E-02 -1.414962E-06  8.287933E-10  4.609941E-02                                                                                                                                                                                                                                                                                                                                                                                                                                                                                              
  9.350000E+02  1.250000E+02 -5.225000E+03  2.926909E-09  6.828864E-12  5.062824E-15 -2.926901E-09  1.641809E-11  3.837135E-14  2.844796E-17 -1.641804E-11  0.000000E+00  0.000000E+00  0.000000E+00  0.000000E+00  0.000000E+00  0.000000E+00  0.000000E+00  0.000000E+00  4.609796E-02 -9.763094E-06  3.365651E-09  4.609796E-02                                                                                                                                                                                                                                                                                                                                                                                                                                                                                              
  1.185000E+03  1.250000E+02 -5.225000E+03  2.913394E-09  1.122321E-11  1.241664E-15 -2.913373E-09  1.634232E-11  6.306322E-14  6.976906E-18 -1.634220E-11  0.000000E+00  0.000000E+00  0.000000E+00  0.000000E+00  0.000000E+00  0.000000E+00  0.000000E+00  0.000000E+00  4.608422E-02 -1.591197E-05 -5.251578E-10  4.608421E-02                                                                                                                                                                                                                                                                                                                                                                                                                                                                                              
  1.435000E+03  1.250000E+02 -5.225000E+03  2.903722E-09  5.127034E-12 -3.411817E-15 -2.903718E-09  1.628809E-11  2.880882E-14 -1.917102E-17 -1.628807E-11  0.000000E+00  0.000000E+00  0.000000E+00  0.000000E+00  0.000000E+00  0.000000E+00  0.000000E+00  0.000000E+00  4.607511E-02 -7.204678E-06 -4.939607E-09  4.607511E-02                                                                                                                                                                                                                                                                                                                                                                                                                                                                                              
  1.250000E+02  1.250000E+02 -4.975000E+03  5.250566E-09 -6.594310E-12 -5.160299E-16 -5.250562E-09  2.935266E-11 -3.692035E-14 -2.889162E-18 -2.935263E-11  0.000000E+00  0.000000E+00  0.000000E+00  0.000000E+00  0.000000E+00  0.000000E+00  0.000000E+00  0.000000E+00  8.465678E-02  1.922419E-05 -6.481695E-10  8.465678E-02                                                                                                                                                                                                                                                                                                                                                                                                                                                                                              
  3.750000E+02  1.250000E+02 -4.975000E+03  5.268488E-09 -1.553086E-11 -3.262121E-15 -5.268466E-09  2.945275E-11 -8.695433E-14 -1.826400E-17 -2.945262E-11  0.000000E+00  0.000000E+00  0.000000E+00  0.000000E+00  0.000000E+00  0.000000E+00  0.000000E+00  0.000000E+00  8.468234E-02  4.533214E-05 -1.709402E-09  8.468233E-02                                                                                                                                                                                                                                                                                                                                                                                                                                                                                              
  6.250000E+02  1.250000E+02 -4.975000E+03  5.297884E-09 -1.042962E-11  1.207767E-16 -5.297873E-09  2.961689E-11 -5.839339E-14  6.762037E-19 -2.961684E-11  0.000000E+00  0.000000E+00  0.000000E+00  0.000000E+00  0.000000E+00  0.000000E+00  0.000000E+00  0.000000E+00  8.473125E-02  3.042368E-05 -5.934941E-10  8.473125E-02                                                                                                                                                                                                                                                                                                                                                                                                                                                                                              
  7.600000E+02  1.250000E+02 -4.975000E+03  5.304711E-09 -1.999328E-12  1.473669E-15 -5.304710E-09  2.965499E-11 -1.119382E-14  8.250762E-18 -2.965499E-11  0.000000E+00  0.000000E+00  0.000000E+00  0.000000E+00  0.000000E+00  0.000000E+00  0.000000E+00  0.000000E+00  8.474751E-02  5.766804E-06  8.639799E-11  8.474751E-02                                                                                                                                                                                                                                                                                                                                                                                                                                                                                              
  7.800000E+02  1.250000E+02 -4.975000E+03  5.305057E-09 -6.984099E-15  1.652997E-15 -5.305057E-09  2.965692E-11 -3.910251E-17  9.254786E-18 -2.965692E-11  0.000000E+00  0.000000E+00  0.000000E+00  0.000000E+00  0.000000E+00  0.000000E+00  0.000000E+00  0.000000E+00  8.474833E-02 -1.206290E-08  4.436709E-10  8.474833E-02                                                                                                                                                                                                                                                                                                                                                                                                                                                                                              
  8.000000E+02  1.250000E+02 -4.975000E+03  5.304711E-09  1.985419E-12  1.790852E-15 -5.304710E-09  2.965499E-11  1.111595E-14  1.002661E-17 -2.965499E-11  0.000000E+00  0.000000E+00  0.000000E+00  0.000000E+00  0.000000E+00  0.000000E+00  0.000000E+00  0.000000E+00  8.474751E-02 -5.786805E-06  5.400261E-10  8.474751E-02                                                                                                                                                                                                                                                                                                                                                                                                                                                                                              
  9.350000E+02  1.250000E+02 -4.975000E+03  5.297887E-09  1.041889E-11  2.281269E-15 -5.297877E-09  2.961691E-11  5.833331E-14  1.277235E-17 -2.961686E-11  0.000000E+00  0.000000E+00  0.000000E+00  0.000000E+00  0.000000E+00  0.000000E+00  0.000000E+00  0.000000E+00  8.473125E-02 -3.043305E-05  2.352665E-09  8.473125E-02                                                                                                                                                                                                                                                                                                                                                                                                                                                                                              
  1.185000E+03  1.250000E+02 -4.975000E+03  5.268485E-09  1.552846E-11  1.179687E-15 -5.268463E-09  2.945274E-11  8.694088E-14  6.604848E-18 -2.945261E-11  0.000000E+00  0.000000E+00  0.000000E+00  0.000000E+00  0.000000E+00  0.000000E+00  0.000000E+00  0.000000E+00  8.468234E-02 -4.533251E-05 -2.090874E-09  8.468233E-02                                                                                                                                                                                                                                                                                                                                                                                                                                                                                              
  1.435000E+03  1.250000E+02 -4.975000E+03  5.250561E-09  6.595714E-12 -2.377693E-15 -5.250557E-09  2.935263E-11  3.692822E-14 -1.331229E-17 -2.935261E-11  0.000000E+00  0.000000E+00  0.000000E+00  0.000000E+00  0.000000E+00  0.000000E+00  0.000000E+00  0.000000E+00  8.465679E-02 -1.922313E-05 -1.871300E-09  8.465679E-02                                                                                                                                                                                                                                                                                                                                                                                                                                                                                              
  1.250000E+02  1.250000E+02 -4.725000E+03  7.092616E-09 -6.546146E-12  1.773592E-15 -7.092613E-09  3.946900E-11 -3.644864E-14  9.875305E-18 -3.946898E-11  0.000000E+00  0.000000E+00  0.000000E+00  0.000000E+00  0.000000E+00  0.000000E+00  0.000000E+00  0.000000E+00  1.174199E-01  4.687026E-05  1.312247E-09  1.174199E-01                                                                                                                                                                                                                                                                                                                                                                                                                                                                                              
  3.750000E+02  1.250000E+02 -4.725000E+03  7.116377E-09 -1.762241E-11  1.041867E-15 -7.116356E-09  3.960101E-11 -9.812033E-14  5.801050E-18 -3.960089E-11  0.000000E+00  0.000000E+00  0.000000E+00  0.000000E+00  0.000000E+00  0.000000E+00  0.000000E+00  0.000000E+00  1.174681E-01  1.253407E-04  1.502716E-09  1.174680E-01                                                                                                                                                                                                                                                                                                                                                                                                                                                                                              
  6.250000E+02  1.250000E+02 -4.725000E+03  7.164852E-09 -1.661087E-11 -2.909936E-16 -7.164833E-09  3.987030E-11 -9.248771E-14 -1.620219E-18 -3.987019E-11  0.000000E+00  0.000000E+00  0.000000E+00  0.000000E+00  0.000000E+00  0.000000E+00  0.000000E+00  0.000000E+00  1.176084E-01  1.162392E-04  2.444583E-10  1.176083E-01                                                                                                                                                                                                                                                                                                                                                                                                                                                                                              
  7.600000E+02  1.250000E+02 -4.725000E+03  7.216268E-09 -7.431787E-12 -1.496843E-16 -7.216264E-09  4.015561E-11 -4.137929E-14 -8.334235E-19 -4.015559E-11  0.000000E+00  0.000000E+00  0.000000E+00  0.000000E+00  0.000000E+00  0.000000E+00  0.000000E+00  0.000000E+00  1.179060E-01  5.070565E-05 -8.805341E-10  1.179059E-01                                                                                                                                                                                                                                                                                                                                                                                                                                                                                              
  7.800000E+02  1.250000E+02 -4.725000E+03  7.218764E-09 -5.059327E-15 -7.543545E-17 -7.218764E-09  4.016946E-11 -2.816969E-17 -4.200150E-19 -4.016946E-11  0.000000E+00  0.000000E+00  0.000000E+00  0.000000E+00  0.000000E+00  0.000000E+00  0.000000E+00  0.000000E+00  1.179203E-01  3.796074E-09 -1.052715E-09  1.179203E-01                                                                                                                                                                                                                                                                                                                                                                                                                                                                                              
  8.000000E+02  1.250000E+02 -4.725000E+03  7.216267E-09  7.420383E-12  7.783550E-17 -7.216264E-09  4.015561E-11  4.131579E-14  4.333783E-19 -4.015559E-11  0.000000E+00  0.000000E+00  0.000000E+00  0.000000E+00  0.000000E+00  0.000000E+00  0.000000E+00  0.000000E+00  1.179060E-01 -5.070495E-05 -1.276271E-09  1.179059E-01                                                                                                                                                                                                                                                                                                                                                                                                                                                                                              
  9.350000E+02  1.250000E+02 -4.725000E+03  7.164845E-09  1.660705E-11  1.457359E-15 -7.164826E-09  3.987026E-11  9.246645E-14  8.114410E-18 -3.987015E-11  0.000000E+00  0.000000E+00  0.000000E+00  0.000000E+00  0.000000E+00  0.000000E+00  0.000000E+00  0.000000E+00  1.176084E-01 -1.162419E-04  3.519147E-10  1.176084E-01                                                                                                                                                                                                                                                                                                                                                                                                                                                                                              
  1.185000E+03  1.250000E+02 -4.725000E+03  7.116368E-09  1.762706E-11  1.053734E-16 -7.116346E-09  3.960096E-11  9.814620E-14  5.867123E-19 -3.960084E-11  0.000000E+00  0.000000E+00  0.000000E+00  0.000000E+00  0.000000E+00  0.000000E+00  0.000000E+00  0.000000E+00  1.174681E-01 -1.253393E-04 -4.745526E-10  1.174680E-01                                                                                                                                                                                                                                                                                                                                                                                                                                                                                              