Title="TOUGHREACT V3.30-OMP flowvector.tec: Liq & Gas Fluxes (kg/s/m^2), Pore Velocities (m/s), & Heat Fluxes (J/s/m2)"                                                                                                                                                                                                                                                                                                                                                                                                                                                                                                                                                                                                                                                                                                         
Variables= "X(m)"     "Y(m)"      "Z(m)"     "FluxLiq"   "FluxLiq_X"   "FluxLiq_Y"   "FluxLiq_Z"   "PorVelLiq"  "PorVelLiqX"  "PorVelLiqY"  "PorVelLiqZ"     "FluxGas"   "FluxGas_X"   "FluxGas_Y"   "FluxGas_Z"   "PorVelGas"  "PorVelGasX"  "PorVelGasY"  "PorVelGasZ"    "HeatFlux"  "HeatFlux_X"  "HeatFlux_Y"  "HeatFlux_Z"                                                                                                                                                                                                                                                                                                                                                                                                                                                                                                
Zone T= "1.00000000E+10 sec" I=     9 J=    10 K=    23 F=Point
  1.250000E+02  1.250000E+02 -5.425000E+03  1.644104E-09 -5.123674E-12 -2.722853E-15  1.644096E-09  9.253922E-12 -2.887016E-14 -1.534236E-17  9.253877E-12  0.000000E+00  0.000000E+00  0.000000E+00  0.000000E+00  0.000000E+00  0.000000E+00  0.000000E+00  0.000000E+00  3.905939E-02  3.699617E-06 -3.937868E-09  3.905939E-02                                                                                                                                                                                                                                                                                                                                                                                                                                                                                              
  3.750000E+02  1.250000E+02 -5.425000E+03  1.641448E-09 -1.088766E-11 -2.815919E-15  1.641412E-09  9.238966E-12 -6.134825E-14 -1.586674E-17  9.238762E-12  0.000000E+00  0.000000E+00  0.000000E+00  0.000000E+00  0.000000E+00  0.000000E+00  0.000000E+00  0.000000E+00  3.906110E-02  7.986755E-06 -2.337507E-10  3.906110E-02                                                                                                                                                                                                                                                                                                                                                                                                                                                                                              
  6.250000E+02  1.250000E+02 -5.425000E+03  1.637999E-09 -6.418467E-12 -3.414787E-15  1.637986E-09  9.219541E-12 -3.616585E-14 -1.924114E-17  9.219470E-12  0.000000E+00  0.000000E+00  0.000000E+00  0.000000E+00  0.000000E+00  0.000000E+00  0.000000E+00  0.000000E+00  3.906349E-02  4.781483E-06 -1.283231E-09  3.906349E-02                                                                                                                                                                                                                                                                                                                                                                                                                                                                                              
  7.600000E+02  1.250000E+02 -5.425000E+03  1.637762E-09 -8.697271E-13 -4.218849E-15  1.637761E-09  9.218204E-12 -4.900610E-15 -2.377175E-17  9.218202E-12  0.000000E+00  0.000000E+00  0.000000E+00  0.000000E+00  0.000000E+00  0.000000E+00  0.000000E+00  0.000000E+00  3.906365E-02  6.728718E-07 -7.231530E-10  3.906365E-02                                                                                                                                                                                                                                                                                                                                                                                                                                                                                              
  7.800000E+02  1.250000E+02 -5.425000E+03  1.637750E-09  8.811783E-15 -4.441026E-15  1.637750E-09  9.218137E-12  4.965133E-17 -2.502364E-17  9.218137E-12  0.000000E+00  0.000000E+00  0.000000E+00  0.000000E+00  0.000000E+00  0.000000E+00  0.000000E+00  0.000000E+00  3.906366E-02  8.419944E-09 -2.521460E-09  3.906366E-02                                                                                                                                                                                                                                                                                                                                                                                                                                                                                              
  8.000000E+02  1.250000E+02 -5.425000E+03  1.637761E-09  8.838415E-13 -4.781325E-15  1.637761E-09  9.218200E-12  4.980139E-15 -2.694110E-17  9.218198E-12  0.000000E+00  0.000000E+00  0.000000E+00  0.000000E+00  0.000000E+00  0.000000E+00  0.000000E+00  0.000000E+00  3.906365E-02 -6.610179E-07 -3.062359E-09  3.906365E-02                                                                                                                                                                                                                                                                                                                                                                                                                                                                                              
  9.350000E+02  1.250000E+02 -5.425000E+03  1.637996E-09  6.418763E-12 -3.333141E-15  1.637984E-09  9.219525E-12  3.616751E-14 -1.878109E-17  9.219455E-12  0.000000E+00  0.000000E+00  0.000000E+00  0.000000E+00  0.000000E+00  0.000000E+00  0.000000E+00  0.000000E+00  3.906349E-02 -4.787712E-06 -7.528161E-09  3.906348E-02                                                                                                                                                                                                                                                                                                                                                                                                                                                                                              
  1.185000E+03  1.250000E+02 -5.425000E+03  1.641452E-09  1.088048E-11 -1.110205E-15  1.641416E-09  9.238989E-12  6.130778E-14 -6.255625E-18  9.238785E-12  0.000000E+00  0.000000E+00  0.000000E+00  0.000000E+00  0.000000E+00  0.000000E+00  0.000000E+00  0.000000E+00  3.906111E-02 -7.996847E-06 -5.509148E-09  3.906111E-02                                                                                                                                                                                                                                                                                                                                                                                                                                                                                              
  1.435000E+03  1.250000E+02 -5.425000E+03  1.644108E-09  5.121498E-12  3.505650E-15  1.644100E-09  9.253949E-12  2.885790E-14  1.975316E-17  9.253904E-12  0.000000E+00  0.000000E+00  0.000000E+00  0.000000E+00  0.000000E+00  0.000000E+00  0.000000E+00  0.000000E+00  3.905940E-02 -3.700047E-06  1.535643E-09  3.905940E-02                                                                                                                                                                                                                                                                                                                                                                                                                                                                                              
  1.250000E+02  1.250000E+02 -5.225000E+03  3.256805E-09 -4.826645E-12 -6.247652E-16  3.256802E-09  1.830045E-11 -2.711208E-14 -3.509414E-18  1.830043E-11  0.000000E+00  0.000000E+00  0.000000E+00  0.000000E+00  0.000000E+00  0.000000E+00  0.000000E+00  0.000000E+00  7.833310E-02  7.320485E-06 -1.198414E-09  7.833310E-02                                                                                                                                                                                                                                                                                                                                                                                                                                                                                              
  3.750000E+02  1.250000E+02 -5.225000E+03  3.247493E-09 -1.046953E-11 -2.297462E-16  3.247476E-09  1.824813E-11 -5.880910E-14 -1.290523E-18  1.824804E-11  0.000000E+00  0.000000E+00  0.000000E+00  0.000000E+00  0.000000E+00  0.000000E+00  0.000000E+00  0.000000E+00  7.834168E-02  1.615523E-05 -3.720664E-10  7.834168E-02                                                                                                                                                                                                                                                                                                                                                                                                                                                                                              
  6.250000E+02  1.250000E+02 -5.225000E+03  3.234934E-09 -6.299146E-12 -1.060892E-16  3.234928E-09  1.817759E-11 -3.538331E-14 -5.959194E-19  1.817755E-11  0.000000E+00  0.000000E+00  0.000000E+00  0.000000E+00  0.000000E+00  0.000000E+00  0.000000E+00  0.000000E+00  7.835443E-02  9.872245E-06  2.997937E-10  7.835443E-02                                                                                                                                                                                                                                                                                                                                                                                                                                                                                              
  7.600000E+02  1.250000E+02 -5.225000E+03  3.234010E-09 -8.749815E-13 -4.513124E-16  3.234010E-09  1.817240E-11 -4.914908E-15 -2.535093E-18  1.817239E-11  0.000000E+00  0.000000E+00  0.000000E+00  0.000000E+00  0.000000E+00  0.000000E+00  0.000000E+00  0.000000E+00  7.835544E-02  1.384086E-06 -6.137657E-11  7.835544E-02                                                                                                                                                                                                                                                                                                                                                                                                                                                                                              
  7.800000E+02  1.250000E+02 -5.225000E+03  3.233963E-09  1.811633E-15 -5.053987E-16  3.233963E-09  1.817213E-11  1.017623E-17 -2.838904E-18  1.817213E-11  0.000000E+00  0.000000E+00  0.000000E+00  0.000000E+00  0.000000E+00  0.000000E+00  0.000000E+00  0.000000E+00  7.835549E-02 -1.245868E-09 -1.135854E-10  7.835549E-02                                                                                                                                                                                                                                                                                                                                                                                                                                                                                              
  8.000000E+02  1.250000E+02 -5.225000E+03  3.234009E-09  8.784745E-13 -5.589251E-16  3.234009E-09  1.817239E-11  4.934529E-15 -3.139570E-18  1.817239E-11  0.000000E+00  0.000000E+00  0.000000E+00  0.000000E+00  0.000000E+00  0.000000E+00  0.000000E+00  0.000000E+00  7.835544E-02 -1.386555E-06 -1.646678E-10  7.835544E-02                                                                                                                                                                                                                                                                                                                                                                                                                                                                                              
  9.350000E+02  1.250000E+02 -5.225000E+03  3.234932E-09  6.300453E-12 -8.505305E-16  3.234925E-09  1.817757E-11  3.539066E-14 -4.777563E-18  1.817754E-11  0.000000E+00  0.000000E+00  0.000000E+00  0.000000E+00  0.000000E+00  0.000000E+00  0.000000E+00  0.000000E+00  7.835443E-02 -9.875856E-06 -4.929167E-10  7.835443E-02                                                                                                                                                                                                                                                                                                                                                                                                                                                                                              
  1.185000E+03  1.250000E+02 -5.225000E+03  3.247497E-09  1.046793E-11 -1.306962E-16  3.247480E-09  1.824816E-11  5.880009E-14 -7.341420E-19  1.824806E-11  0.000000E+00  0.000000E+00  0.000000E+00  0.000000E+00  0.000000E+00  0.000000E+00  0.000000E+00  0.000000E+00  7.834169E-02 -1.615637E-05 -1.506308E-10  7.834169E-02                                                                                                                                                                                                                                                                                                                                                                                                                                                                                              
  1.435000E+03  1.250000E+02 -5.225000E+03  3.256807E-09  4.825415E-12  1.237691E-15  3.256803E-09  1.830046E-11  2.710517E-14  6.952321E-18  1.830044E-11  0.000000E+00  0.000000E+00  0.000000E+00  0.000000E+00  0.000000E+00  0.000000E+00  0.000000E+00  0.000000E+00  7.833311E-02 -7.319246E-06  1.027578E-09  7.833311E-02                                                                                                                                                                                                                                                                                                                                                                                                                                                                                              
  1.250000E+02  1.250000E+02 -4.975000E+03  2.098634E-09 -6.064670E-12 -1.268535E-15  2.098625E-09  1.175965E-11 -3.393465E-14 -7.098051E-18  1.175960E-11  0.000000E+00  0.000000E+00  0.000000E+00  0.000000E+00  0.000000E+00  0.000000E+00  0.000000E+00  0.000000E+00  9.298700E-02  1.905306E-05  5.237451E-10  9.298700E-02                                                                                                                                                                                                                                                                                                                                                                                                                                                                                              
  3.750000E+02  1.250000E+02 -4.975000E+03  2.081350E-09 -1.389681E-11  1.150391E-15  2.081304E-09  1.166295E-11 -7.775897E-14  6.436964E-18  1.166269E-11  0.000000E+00  0.000000E+00  0.000000E+00  0.000000E+00  0.000000E+00  0.000000E+00  0.000000E+00  0.000000E+00  9.301044E-02  4.449405E-05  1.288508E-09  9.301043E-02                                                                                                                                                                                                                                                                                                                                                                                                                                                                                              
  6.250000E+02  1.250000E+02 -4.975000E+03  2.055218E-09 -8.879711E-12  2.084149E-15  2.055199E-09  1.151677E-11 -4.968594E-14  1.166173E-17  1.151666E-11  0.000000E+00  0.000000E+00  0.000000E+00  0.000000E+00  0.000000E+00  0.000000E+00  0.000000E+00  0.000000E+00  9.305089E-02  2.884492E-05  2.496980E-09  9.305089E-02                                                                                                                                                                                                                                                                                                                                                                                                                                                                                              
  7.600000E+02  1.250000E+02 -4.975000E+03  2.052001E-09 -1.400679E-12  1.923583E-15  2.052001E-09  1.149879E-11 -7.837412E-15  1.076329E-17  1.149879E-11  0.000000E+00  0.000000E+00  0.000000E+00  0.000000E+00  0.000000E+00  0.000000E+00  0.000000E+00  0.000000E+00  9.305741E-02  4.546615E-06  2.505908E-09  9.305741E-02                                                                                                                                                                                                                                                                                                                                                                                                                                                                                              
  7.800000E+02  1.250000E+02 -4.975000E+03  2.051840E-09 -3.130607E-16  2.097935E-15  2.051840E-09  1.149789E-11 -1.751711E-18  1.173886E-17  1.149789E-11  0.000000E+00  0.000000E+00  0.000000E+00  0.000000E+00  0.000000E+00  0.000000E+00  0.000000E+00  0.000000E+00  9.305774E-02 -4.683965E-09  2.711247E-09  9.305774E-02                                                                                                                                                                                                                                                                                                                                                                                                                                                                                              
  8.000000E+02  1.250000E+02 -4.975000E+03  2.052001E-09  1.401871E-12  2.113483E-15  2.052001E-09  1.149879E-11  7.844080E-15  1.182586E-17  1.149879E-11  0.000000E+00  0.000000E+00  0.000000E+00  0.000000E+00  0.000000E+00  0.000000E+00  0.000000E+00  0.000000E+00  9.305741E-02 -4.550923E-06  3.098347E-09  9.305741E-02                                                                                                                                                                                                                                                                                                                                                                                                                                                                                              
  9.350000E+02  1.250000E+02 -4.975000E+03  2.055218E-09  8.880724E-12  2.531837E-15  2.055199E-09  1.151677E-11  4.969161E-14  1.416674E-17  1.151666E-11  0.000000E+00  0.000000E+00  0.000000E+00  0.000000E+00  0.000000E+00  0.000000E+00  0.000000E+00  0.000000E+00  9.305089E-02 -2.884369E-05  4.312550E-09  9.305089E-02                                                                                                                                                                                                                                                                                                                                                                                                                                                                                              
  1.185000E+03  1.250000E+02 -4.975000E+03  2.081347E-09  1.389273E-11  2.244605E-15  2.081301E-09  1.166293E-11  7.773615E-14  1.255959E-17  1.166267E-11  0.000000E+00  0.000000E+00  0.000000E+00  0.000000E+00  0.000000E+00  0.000000E+00  0.000000E+00  0.000000E+00  9.301044E-02 -4.449250E-05  1.417180E-09  9.301043E-02                                                                                                                                                                                                                                                                                                                                                                                                                                                                                              
  1.435000E+03  1.250000E+02 -4.975000E+03  2.098632E-09  6.061085E-12  2.647765E-15  2.098623E-09  1.175964E-11  3.391458E-14  1.481549E-17  1.175959E-11  0.000000E+00  0.000000E+00  0.000000E+00  0.000000E+00  0.000000E+00  0.000000E+00  0.000000E+00  0.000000E+00  9.298700E-02 -1.905236E-05  7.618241E-10  9.298700E-02                                                                                                                                                                                                                                                                                                                                                                                                                                                                                              
  1.250000E+02  1.250000E+02 -4.725000E+03  9.424796E-11 -5.835207E-12  3.629296E-17 -9.406714E-11  5.068449E-13 -3.247397E-14  2.019773E-19 -5.058035E-13  0.000000E+00  0.000000E+00  0.000000E+00  0.000000E+00  0.000000E+00  0.000000E+00  0.000000E+00  0.000000E+00  1.214012E-01  4.515494E-05  2.209988E-09  1.214012E-01                                                                                                                                                                                                                                                                                                                                                                                                                                                                                              
  3.750000E+02  1.250000E+02 -4.725000E+03  1.182018E-10 -1.463695E-11  2.871318E-17 -1.172920E-10  6.402484E-13 -8.145690E-14  1.597935E-19 -6.350455E-13  0.000000E+00  0.000000E+00  0.000000E+00  0.000000E+00  0.000000E+00  0.000000E+00  0.000000E+00  0.000000E+00  1.214424E-01  1.146964E-04  1.394949E-09  1.214423E-01                                                                                                                                                                                                                                                                                                                                                                                                                                                                                              
  6.250000E+02  1.250000E+02 -4.725000E+03  1.573256E-10 -1.108971E-11 -8.041050E-17 -1.569342E-10  8.578236E-13 -6.171574E-14 -4.474940E-19 -8.556007E-13  0.000000E+00  0.000000E+00  0.000000E+00  0.000000E+00  0.000000E+00  0.000000E+00  0.000000E+00  0.000000E+00  1.215302E-01  8.643984E-05 -1.324020E-09  1.215302E-01                                                                                                                                                                                                                                                                                                                                                                                                                                                                                              
  7.600000E+02  1.250000E+02 -4.725000E+03  1.735380E-10 -3.066619E-12  7.088902E-16 -1.735109E-10  9.478220E-13 -1.706609E-14  3.945054E-18 -9.476684E-13  0.000000E+00  0.000000E+00  0.000000E+00  0.000000E+00  0.000000E+00  0.000000E+00  0.000000E+00  0.000000E+00  1.216182E-01  2.264544E-05  5.506254E-10  1.216182E-01                                                                                                                                                                                                                                                                                                                                                                                                                                                                                              
  7.800000E+02  1.250000E+02 -4.725000E+03  1.743263E-10  5.487065E-16  8.268737E-16 -1.743263E-10  9.521974E-13  3.053614E-18  4.601645E-18 -9.521974E-13  0.000000E+00  0.000000E+00  0.000000E+00  0.000000E+00  0.000000E+00  0.000000E+00  0.000000E+00  0.000000E+00  1.216225E-01 -1.513676E-09  8.157823E-10  1.216225E-01                                                                                                                                                                                                                                                                                                                                                                                                                                                                                              
  8.000000E+02  1.250000E+02 -4.725000E+03  1.735380E-10  3.067413E-12  7.883386E-16 -1.735109E-10  9.478218E-13  1.707051E-14  4.387194E-18 -9.476681E-13  0.000000E+00  0.000000E+00  0.000000E+00  0.000000E+00  0.000000E+00  0.000000E+00  0.000000E+00  0.000000E+00  1.216182E-01 -2.264600E-05  8.489696E-10  1.216182E-01                                                                                                                                                                                                                                                                                                                                                                                                                                                                                              
  9.350000E+02  1.250000E+02 -4.725000E+03  1.573264E-10  1.108736E-11  6.854441E-16 -1.569352E-10  8.578281E-13  6.170265E-14  3.814578E-18 -8.556061E-13  0.000000E+00  0.000000E+00  0.000000E+00  0.000000E+00  0.000000E+00  0.000000E+00  0.000000E+00  0.000000E+00  1.215302E-01 -8.644036E-05 -5.703755E-10  1.215302E-01                                                                                                                                                                                                                                                                                                                                                                                                                                                                                              
  1.185000E+03  1.250000E+02 -4.725000E+03  1.182001E-10  1.463587E-11  2.970327E-15 -1.172905E-10  6.402393E-13  8.145091E-14  1.653035E-17 -6.350371E-13  0.000000E+00  0.000000E+00  0.000000E+00  0.000000E+00  0.000000E+00  0.000000E+00  0.000000E+00  0.000000E+00  1.214424E-01 -1.146966E-04  2.607107E-09  1.214423E-01                                                                                                                                                                                                                                                                                                                                                                                                                                                                                              