Title="TOUGHREACT V3.30-OMP flowvector.tec: Liq & Gas Fluxes (kg/s/m^2), Pore Velocities (m/s), & Heat Fluxes (J/s/m2)"                                                                                                                                                                                                                                                                                                                                                                                                                                                                                                                                                                                                                                                                                                         
Variables= "X(m)"     "Y(m)"      "Z(m)"     "FluxLiq"   "FluxLiq_X"   "FluxLiq_Y"   "FluxLiq_Z"   "PorVelLiq"  "PorVelLiqX"  "PorVelLiqY"  "PorVelLiqZ"     "FluxGas"   "FluxGas_X"   "FluxGas_Y"   "FluxGas_Z"   "PorVelGas"  "PorVelGasX"  "PorVelGasY"  "PorVelGasZ"    "HeatFlux"  "HeatFlux_X"  "HeatFlux_Y"  "HeatFlux_Z"                                                                                                                                                                                                                                                                                                                                                                                                                                                                                                
Zone T= "5.18400000E+05 sec" I=     9 J=    10 K=    23 F=Point
  1.250000E+02  1.250000E+02 -5.425000E+03  7.428736E-10 -5.317853E-12  1.367922E-15 -7.428545E-10  4.174310E-12 -2.991229E-14  7.694404E-18 -4.174203E-12  0.000000E+00  0.000000E+00  0.000000E+00  0.000000E+00  0.000000E+00  0.000000E+00  0.000000E+00  0.000000E+00  1.284262E-02  3.605079E-06 -8.858567E-10  1.284262E-02                                                                                                                                                                                                                                                                                                                                                                                                                                                                                              
  3.750000E+02  1.250000E+02 -5.425000E+03  7.457071E-10 -1.134678E-11  1.165839E-15 -7.456208E-10  4.190228E-12 -6.382425E-14  6.557701E-18 -4.189742E-12  0.000000E+00  0.000000E+00  0.000000E+00  0.000000E+00  0.000000E+00  0.000000E+00  0.000000E+00  0.000000E+00  1.284444E-02  7.779025E-06  1.767926E-09  1.284444E-02                                                                                                                                                                                                                                                                                                                                                                                                                                                                                              
  6.250000E+02  1.250000E+02 -5.425000E+03  7.492776E-10 -6.722857E-12 -7.120177E-16 -7.492475E-10  4.210285E-12 -3.781523E-14 -4.005009E-18 -4.210116E-12  0.000000E+00  0.000000E+00  0.000000E+00  0.000000E+00  0.000000E+00  0.000000E+00  0.000000E+00  0.000000E+00  1.284695E-02  4.652288E-06 -2.607347E-09  1.284695E-02                                                                                                                                                                                                                                                                                                                                                                                                                                                                                              
  7.600000E+02  1.250000E+02 -5.425000E+03  7.494997E-10 -9.269228E-13  5.340592E-17 -7.494991E-10  4.211533E-12 -5.213823E-15  3.004015E-19 -4.211529E-12  0.000000E+00  0.000000E+00  0.000000E+00  0.000000E+00  0.000000E+00  0.000000E+00  0.000000E+00  0.000000E+00  1.284714E-02  6.357607E-07 -9.100883E-10  1.284714E-02                                                                                                                                                                                                                                                                                                                                                                                                                                                                                              
  7.800000E+02  1.250000E+02 -5.425000E+03  7.495115E-10 -2.123785E-15  2.272859E-16 -7.495115E-10  4.211599E-12 -1.194602E-17  1.278454E-18 -4.211599E-12  0.000000E+00  0.000000E+00  0.000000E+00  0.000000E+00  0.000000E+00  0.000000E+00  0.000000E+00  0.000000E+00  1.284715E-02 -7.669320E-10 -3.870711E-10  1.284715E-02                                                                                                                                                                                                                                                                                                                                                                                                                                                                                              
  8.000000E+02  1.250000E+02 -5.425000E+03  7.494994E-10  9.230336E-13 -4.682339E-17 -7.494988E-10  4.211531E-12  5.191946E-15 -2.633756E-19 -4.211528E-12  0.000000E+00  0.000000E+00  0.000000E+00  0.000000E+00  0.000000E+00  0.000000E+00  0.000000E+00  0.000000E+00  1.284714E-02 -6.427245E-07 -1.001931E-09  1.284714E-02                                                                                                                                                                                                                                                                                                                                                                                                                                                                                              
  9.350000E+02  1.250000E+02 -5.425000E+03  7.492749E-10  6.722330E-12 -7.939080E-16 -7.492447E-10  4.210270E-12  3.781227E-14 -4.465632E-18 -4.210100E-12  0.000000E+00  0.000000E+00  0.000000E+00  0.000000E+00  0.000000E+00  0.000000E+00  0.000000E+00  0.000000E+00  1.284696E-02 -4.654016E-06  9.489891E-10  1.284696E-02                                                                                                                                                                                                                                                                                                                                                                                                                                                                                              
  1.185000E+03  1.250000E+02 -5.425000E+03  7.457120E-10  1.134606E-11 -1.656335E-15 -7.456256E-10  4.190256E-12  6.382021E-14 -9.316685E-18 -4.189770E-12  0.000000E+00  0.000000E+00  0.000000E+00  0.000000E+00  0.000000E+00  0.000000E+00  0.000000E+00  0.000000E+00  1.284443E-02 -7.777283E-06 -4.888399E-10  1.284443E-02                                                                                                                                                                                                                                                                                                                                                                                                                                                                                              
  1.435000E+03  1.250000E+02 -5.425000E+03  7.428760E-10  5.315896E-12  1.509470E-15 -7.428570E-10  4.174324E-12  2.990129E-14  8.490596E-18 -4.174217E-12  0.000000E+00  0.000000E+00  0.000000E+00  0.000000E+00  0.000000E+00  0.000000E+00  0.000000E+00  0.000000E+00  1.284261E-02 -3.607806E-06  1.273571E-09  1.284261E-02                                                                                                                                                                                                                                                                                                                                                                                                                                                                                              
  1.250000E+02  1.250000E+02 -5.225000E+03  2.835107E-09 -5.126675E-12  4.929578E-16 -2.835103E-09  1.590254E-11 -2.880680E-14  2.769933E-18 -1.590251E-11  0.000000E+00  0.000000E+00  0.000000E+00  0.000000E+00  0.000000E+00  0.000000E+00  0.000000E+00  0.000000E+00  4.613744E-02  7.207434E-06 -1.841377E-09  4.613744E-02                                                                                                                                                                                                                                                                                                                                                                                                                                                                                              
  3.750000E+02  1.250000E+02 -5.225000E+03  2.844777E-09 -1.122735E-11  3.631735E-16 -2.844755E-09  1.595675E-11 -6.308645E-14  2.040671E-18 -1.595663E-11  0.000000E+00  0.000000E+00  0.000000E+00  0.000000E+00  0.000000E+00  0.000000E+00  0.000000E+00  0.000000E+00  4.614654E-02  1.590998E-05 -2.378998E-09  4.614654E-02                                                                                                                                                                                                                                                                                                                                                                                                                                                                                              
  6.250000E+02  1.250000E+02 -5.225000E+03  2.858299E-09 -6.832683E-12  2.752542E-15 -2.858291E-09  1.603256E-11 -3.839281E-14  1.546651E-17 -1.603252E-11  0.000000E+00  0.000000E+00  0.000000E+00  0.000000E+00  0.000000E+00  0.000000E+00  0.000000E+00  0.000000E+00  4.616028E-02  9.755965E-06  7.244144E-10  4.616028E-02                                                                                                                                                                                                                                                                                                                                                                                                                                                                                              
  7.600000E+02  1.250000E+02 -5.225000E+03  2.859534E-09 -9.771570E-13  1.787526E-15 -2.859533E-09  1.603949E-11 -5.490635E-15  1.004409E-17 -1.603949E-11  0.000000E+00  0.000000E+00  0.000000E+00  0.000000E+00  0.000000E+00  0.000000E+00  0.000000E+00  0.000000E+00  4.616173E-02  1.402509E-06  3.461363E-11  4.616173E-02                                                                                                                                                                                                                                                                                                                                                                                                                                                                                              
  7.800000E+02  1.250000E+02 -5.225000E+03  2.859596E-09 -1.023177E-16  1.856417E-15 -2.859596E-09  1.603983E-11 -5.749220E-19  1.043119E-17 -1.603983E-11  0.000000E+00  0.000000E+00  0.000000E+00  0.000000E+00  0.000000E+00  0.000000E+00  0.000000E+00  0.000000E+00  4.616180E-02 -1.007679E-08  2.631034E-10  4.616180E-02                                                                                                                                                                                                                                                                                                                                                                                                                                                                                              
  8.000000E+02  1.250000E+02 -5.225000E+03  2.859534E-09  9.779876E-13  2.160904E-15 -2.859534E-09  1.603949E-11  5.495303E-15  1.214210E-17 -1.603949E-11  0.000000E+00  0.000000E+00  0.000000E+00  0.000000E+00  0.000000E+00  0.000000E+00  0.000000E+00  0.000000E+00  4.616173E-02 -1.414730E-06  9.073102E-10  4.616173E-02                                                                                                                                                                                                                                                                                                                                                                                                                                                                                              
  9.350000E+02  1.250000E+02 -5.225000E+03  2.858300E-09  6.829068E-12  4.653571E-15 -2.858292E-09  1.603257E-11  3.837250E-14  2.614837E-17 -1.603253E-11  0.000000E+00  0.000000E+00  0.000000E+00  0.000000E+00  0.000000E+00  0.000000E+00  0.000000E+00  0.000000E+00  4.616028E-02 -9.762901E-06  3.000960E-09  4.616028E-02                                                                                                                                                                                                                                                                                                                                                                                                                                                                                              
  1.185000E+03  1.250000E+02 -5.225000E+03  2.844786E-09  1.122296E-11  1.115014E-15 -2.844763E-09  1.595680E-11  6.306179E-14  6.265262E-18 -1.595668E-11  0.000000E+00  0.000000E+00  0.000000E+00  0.000000E+00  0.000000E+00  0.000000E+00  0.000000E+00  0.000000E+00  4.614654E-02 -1.591219E-05 -6.384561E-10  4.614653E-02                                                                                                                                                                                                                                                                                                                                                                                                                                                                                              
  1.435000E+03  1.250000E+02 -5.225000E+03  2.835113E-09  5.126833E-12 -3.259103E-15 -2.835108E-09  1.590257E-11  2.880769E-14 -1.831292E-17 -1.590254E-11  0.000000E+00  0.000000E+00  0.000000E+00  0.000000E+00  0.000000E+00  0.000000E+00  0.000000E+00  0.000000E+00  4.613744E-02 -7.204853E-06 -4.805204E-09  4.613744E-02                                                                                                                                                                                                                                                                                                                                                                                                                                                                                              
  1.250000E+02  1.250000E+02 -4.975000E+03  5.250243E-09 -6.594446E-12 -5.815459E-16 -5.250239E-09  2.935085E-11 -3.692112E-14 -3.255975E-18 -2.935083E-11  0.000000E+00  0.000000E+00  0.000000E+00  0.000000E+00  0.000000E+00  0.000000E+00  0.000000E+00  0.000000E+00  8.465696E-02  1.922405E-05 -7.062330E-10  8.465696E-02                                                                                                                                                                                                                                                                                                                                                                                                                                                                                              
  3.750000E+02  1.250000E+02 -4.975000E+03  5.268166E-09 -1.553092E-11 -3.076208E-15 -5.268143E-09  2.945094E-11 -8.695465E-14 -1.722311E-17 -2.945082E-11  0.000000E+00  0.000000E+00  0.000000E+00  0.000000E+00  0.000000E+00  0.000000E+00  0.000000E+00  0.000000E+00  8.468252E-02  4.533203E-05 -1.547537E-09  8.468250E-02                                                                                                                                                                                                                                                                                                                                                                                                                                                                                              
  6.250000E+02  1.250000E+02 -4.975000E+03  5.297561E-09 -1.042929E-11  2.175216E-16 -5.297551E-09  2.961509E-11 -5.839152E-14  1.217859E-18 -2.961503E-11  0.000000E+00  0.000000E+00  0.000000E+00  0.000000E+00  0.000000E+00  0.000000E+00  0.000000E+00  0.000000E+00  8.473143E-02  3.042393E-05 -5.065383E-10  8.473143E-02                                                                                                                                                                                                                                                                                                                                                                                                                                                                                              
  7.600000E+02  1.250000E+02 -4.975000E+03  5.304388E-09 -1.999808E-12  1.361872E-15 -5.304388E-09  2.965318E-11 -1.119651E-14  7.624836E-18 -2.965318E-11  0.000000E+00  0.000000E+00  0.000000E+00  0.000000E+00  0.000000E+00  0.000000E+00  0.000000E+00  0.000000E+00  8.474769E-02  5.766343E-06 -1.305676E-11  8.474769E-02                                                                                                                                                                                                                                                                                                                                                                                                                                                                                              
  7.800000E+02  1.250000E+02 -4.975000E+03  5.304734E-09 -7.223938E-15  1.584474E-15 -5.304734E-09  2.965511E-11 -4.044531E-17  8.871138E-18 -2.965511E-11  0.000000E+00  0.000000E+00  0.000000E+00  0.000000E+00  0.000000E+00  0.000000E+00  0.000000E+00  0.000000E+00  8.474851E-02 -1.230016E-08  3.853628E-10  8.474851E-02                                                                                                                                                                                                                                                                                                                                                                                                                                                                                              
  8.000000E+02  1.250000E+02 -4.975000E+03  5.304388E-09  1.985889E-12  1.735418E-15 -5.304388E-09  2.965318E-11  1.111858E-14  9.716240E-18 -2.965318E-11  0.000000E+00  0.000000E+00  0.000000E+00  0.000000E+00  0.000000E+00  0.000000E+00  0.000000E+00  0.000000E+00  8.474769E-02 -5.786378E-06  4.952633E-10  8.474769E-02                                                                                                                                                                                                                                                                                                                                                                                                                                                                                              
  9.350000E+02  1.250000E+02 -4.975000E+03  5.297565E-09  1.041880E-11  2.285850E-15 -5.297555E-09  2.961511E-11  5.833279E-14  1.279800E-17 -2.961505E-11  0.000000E+00  0.000000E+00  0.000000E+00  0.000000E+00  0.000000E+00  0.000000E+00  0.000000E+00  0.000000E+00  8.473143E-02 -3.043309E-05  2.358176E-09  8.473143E-02                                                                                                                                                                                                                                                                                                                                                                                                                                                                                              
  1.185000E+03  1.250000E+02 -4.975000E+03  5.268163E-09  1.552832E-11  1.222143E-15 -5.268140E-09  2.945093E-11  8.694009E-14  6.842550E-18 -2.945080E-11  0.000000E+00  0.000000E+00  0.000000E+00  0.000000E+00  0.000000E+00  0.000000E+00  0.000000E+00  0.000000E+00  8.468252E-02 -4.533257E-05 -2.051329E-09  8.468251E-02                                                                                                                                                                                                                                                                                                                                                                                                                                                                                              
  1.435000E+03  1.250000E+02 -4.975000E+03  5.250239E-09  6.595638E-12 -2.176500E-15 -5.250235E-09  2.935082E-11  3.692779E-14 -1.218585E-17 -2.935080E-11  0.000000E+00  0.000000E+00  0.000000E+00  0.000000E+00  0.000000E+00  0.000000E+00  0.000000E+00  0.000000E+00  8.465697E-02 -1.922317E-05 -1.693707E-09  8.465696E-02                                                                                                                                                                                                                                                                                                                                                                                                                                                                                              
  1.250000E+02  1.250000E+02 -4.725000E+03  7.092607E-09 -6.546162E-12  1.683233E-15 -7.092604E-09  3.946894E-11 -3.644873E-14  9.372189E-18 -3.946893E-11  0.000000E+00  0.000000E+00  0.000000E+00  0.000000E+00  0.000000E+00  0.000000E+00  0.000000E+00  0.000000E+00  1.174198E-01  4.687018E-05  1.235927E-09  1.174198E-01                                                                                                                                                                                                                                                                                                                                                                                                                                                                                              
  3.750000E+02  1.250000E+02 -4.725000E+03  7.116368E-09 -1.762238E-11  1.016322E-15 -7.116346E-09  3.960096E-11 -9.812016E-14  5.658817E-18 -3.960084E-11  0.000000E+00  0.000000E+00  0.000000E+00  0.000000E+00  0.000000E+00  0.000000E+00  0.000000E+00  0.000000E+00  1.174679E-01  1.253406E-04  1.482699E-09  1.174679E-01                                                                                                                                                                                                                                                                                                                                                                                                                                                                                              
  6.250000E+02  1.250000E+02 -4.725000E+03  7.164843E-09 -1.661077E-11 -3.256826E-16 -7.164824E-09  3.987025E-11 -9.248716E-14 -1.813364E-18 -3.987014E-11  0.000000E+00  0.000000E+00  0.000000E+00  0.000000E+00  0.000000E+00  0.000000E+00  0.000000E+00  0.000000E+00  1.176083E-01  1.162391E-04  2.139778E-10  1.176082E-01                                                                                                                                                                                                                                                                                                                                                                                                                                                                                              
  7.600000E+02  1.250000E+02 -4.725000E+03  7.216259E-09 -7.432757E-12 -1.363103E-16 -7.216255E-09  4.015556E-11 -4.138469E-14 -7.589583E-19 -4.015554E-11  0.000000E+00  0.000000E+00  0.000000E+00  0.000000E+00  0.000000E+00  0.000000E+00  0.000000E+00  0.000000E+00  1.179058E-01  5.070473E-05 -8.719273E-10  1.179058E-01                                                                                                                                                                                                                                                                                                                                                                                                                                                                                              
  7.800000E+02  1.250000E+02 -4.725000E+03  7.218755E-09 -6.594467E-15  1.310641E-17 -7.218755E-09  4.016941E-11 -3.671716E-17  7.297481E-20 -4.016941E-11  0.000000E+00  0.000000E+00  0.000000E+00  0.000000E+00  0.000000E+00  0.000000E+00  0.000000E+00  0.000000E+00  1.179202E-01  2.459558E-09 -9.789370E-10  1.179202E-01                                                                                                                                                                                                                                                                                                                                                                                                                                                                                              
  8.000000E+02  1.250000E+02 -4.725000E+03  7.216258E-09  7.420119E-12  2.121294E-16 -7.216254E-09  4.015555E-11  4.131432E-14  1.181110E-18 -4.015553E-11  0.000000E+00  0.000000E+00  0.000000E+00  0.000000E+00  0.000000E+00  0.000000E+00  0.000000E+00  0.000000E+00  1.179058E-01 -5.070511E-05 -1.159217E-09  1.179058E-01                                                                                                                                                                                                                                                                                                                                                                                                                                                                                              
  9.350000E+02  1.250000E+02 -4.725000E+03  7.164836E-09  1.660722E-11  1.403121E-15 -7.164817E-09  3.987021E-11  9.246739E-14  7.812421E-18 -3.987010E-11  0.000000E+00  0.000000E+00  0.000000E+00  0.000000E+00  0.000000E+00  0.000000E+00  0.000000E+00  0.000000E+00  1.176083E-01 -1.162416E-04  3.065346E-10  1.176082E-01                                                                                                                                                                                                                                                                                                                                                                                                                                                                                              
  1.185000E+03  1.250000E+02 -4.725000E+03  7.116359E-09  1.762698E-11  9.893138E-17 -7.116337E-09  3.960091E-11  9.814573E-14  5.508438E-19 -3.960079E-11  0.000000E+00  0.000000E+00  0.000000E+00  0.000000E+00  0.000000E+00  0.000000E+00  0.000000E+00  0.000000E+00  1.174680E-01 -1.253392E-04 -4.804145E-10  1.174679E-01                                                                                                                                                                                                                                                                                                                                                                                                                                                                                              