Title="TOUGHREACT V3.30-OMP flowvector.tec: Liq & Gas Fluxes (kg/s/m^2), Pore Velocities (m/s), & Heat Fluxes (J/s/m2)"                                                                                                                                                                                                                                                                                                                                                                                                                                                                                                                                                                                                                                                                                                         
Variables= "X(m)"     "Y(m)"      "Z(m)"     "FluxLiq"   "FluxLiq_X"   "FluxLiq_Y"   "FluxLiq_Z"   "PorVelLiq"  "PorVelLiqX"  "PorVelLiqY"  "PorVelLiqZ"     "FluxGas"   "FluxGas_X"   "FluxGas_Y"   "FluxGas_Z"   "PorVelGas"  "PorVelGasX"  "PorVelGasY"  "PorVelGasZ"    "HeatFlux"  "HeatFlux_X"  "HeatFlux_Y"  "HeatFlux_Z"                                                                                                                                                                                                                                                                                                                                                                                                                                                                                                
Zone T= "1.00000000E+06 sec" I=     9 J=    10 K=    23 F=Point
  1.250000E+02  1.250000E+02 -5.425000E+03  6.811591E-10 -5.318217E-12  1.599731E-15 -6.811383E-10  3.827528E-12 -2.991434E-14  8.998298E-18 -3.827411E-12  0.000000E+00  0.000000E+00  0.000000E+00  0.000000E+00  0.000000E+00  0.000000E+00  0.000000E+00  0.000000E+00  1.289878E-02  3.604740E-06 -6.733669E-10  1.289878E-02                                                                                                                                                                                                                                                                                                                                                                                                                                                                                              
  3.750000E+02  1.250000E+02 -5.425000E+03  6.839984E-10 -1.134680E-11  9.637777E-16 -6.839043E-10  3.843479E-12 -6.382436E-14  5.421133E-18 -3.842949E-12  0.000000E+00  0.000000E+00  0.000000E+00  0.000000E+00  0.000000E+00  0.000000E+00  0.000000E+00  0.000000E+00  1.290060E-02  7.778992E-06  1.583939E-09  1.290060E-02                                                                                                                                                                                                                                                                                                                                                                                                                                                                                              
  6.250000E+02  1.250000E+02 -5.425000E+03  6.875641E-10 -6.722101E-12 -7.629198E-16 -6.875313E-10  3.863510E-12 -3.781098E-14 -4.291327E-18 -3.863325E-12  0.000000E+00  0.000000E+00  0.000000E+00  0.000000E+00  0.000000E+00  0.000000E+00  0.000000E+00  0.000000E+00  1.290311E-02  4.652975E-06 -2.655688E-09  1.290311E-02                                                                                                                                                                                                                                                                                                                                                                                                                                                                                              
  7.600000E+02  1.250000E+02 -5.425000E+03  6.877842E-10 -9.267620E-13 -4.025193E-16 -6.877836E-10  3.864746E-12 -5.212918E-15 -2.264120E-18 -3.864742E-12  0.000000E+00  0.000000E+00  0.000000E+00  0.000000E+00  0.000000E+00  0.000000E+00  0.000000E+00  0.000000E+00  1.290330E-02  6.358230E-07 -1.327502E-09  1.290330E-02                                                                                                                                                                                                                                                                                                                                                                                                                                                                                              
  7.800000E+02  1.250000E+02 -5.425000E+03  6.877959E-10 -2.278452E-15 -4.101237E-16 -6.877959E-10  3.864812E-12 -1.281600E-17 -2.306894E-18 -3.864812E-12  0.000000E+00  0.000000E+00  0.000000E+00  0.000000E+00  0.000000E+00  0.000000E+00  0.000000E+00  0.000000E+00  1.290331E-02 -1.005382E-09 -9.728643E-10  1.290331E-02                                                                                                                                                                                                                                                                                                                                                                                                                                                                                              
  8.000000E+02  1.250000E+02 -5.425000E+03  6.877838E-10  9.235252E-13 -5.196883E-16 -6.877832E-10  3.864744E-12  5.194712E-15 -2.923181E-18 -3.864740E-12  0.000000E+00  0.000000E+00  0.000000E+00  0.000000E+00  0.000000E+00  0.000000E+00  0.000000E+00  0.000000E+00  1.290330E-02 -6.422750E-07 -1.431055E-09  1.290330E-02                                                                                                                                                                                                                                                                                                                                                                                                                                                                                              
  9.350000E+02  1.250000E+02 -5.425000E+03  6.875623E-10  6.722119E-12 -9.650265E-16 -6.875294E-10  3.863499E-12  3.781108E-14 -5.428151E-18 -3.863314E-12  0.000000E+00  0.000000E+00  0.000000E+00  0.000000E+00  0.000000E+00  0.000000E+00  0.000000E+00  0.000000E+00  1.290311E-02 -4.654189E-06  7.891457E-10  1.290311E-02                                                                                                                                                                                                                                                                                                                                                                                                                                                                                              
  1.185000E+03  1.250000E+02 -5.425000E+03  6.840033E-10  1.134536E-11 -1.915412E-15 -6.839092E-10  3.843507E-12  6.381628E-14 -1.077396E-17 -3.842977E-12  0.000000E+00  0.000000E+00  0.000000E+00  0.000000E+00  0.000000E+00  0.000000E+00  0.000000E+00  0.000000E+00  1.290059E-02 -7.777908E-06 -7.281899E-10  1.290059E-02                                                                                                                                                                                                                                                                                                                                                                                                                                                                                              
  1.435000E+03  1.250000E+02 -5.425000E+03  6.811612E-10  5.315804E-12  1.427939E-15 -6.811405E-10  3.827540E-12  2.990077E-14  8.031992E-18 -3.827423E-12  0.000000E+00  0.000000E+00  0.000000E+00  0.000000E+00  0.000000E+00  0.000000E+00  0.000000E+00  0.000000E+00  1.289877E-02 -3.607887E-06  1.202812E-09  1.289877E-02                                                                                                                                                                                                                                                                                                                                                                                                                                                                                              
  1.250000E+02  1.250000E+02 -5.225000E+03  2.772593E-09 -5.126622E-12  5.404171E-16 -2.772589E-09  1.555127E-11 -2.880650E-14  3.036607E-18 -1.555125E-11  0.000000E+00  0.000000E+00  0.000000E+00  0.000000E+00  0.000000E+00  0.000000E+00  0.000000E+00  0.000000E+00  4.619425E-02  7.207478E-06 -1.797413E-09  4.619425E-02                                                                                                                                                                                                                                                                                                                                                                                                                                                                                              
  3.750000E+02  1.250000E+02 -5.225000E+03  2.782263E-09 -1.122694E-11  2.350356E-16 -2.782241E-09  1.560549E-11 -6.308414E-14  1.320665E-18 -1.560536E-11  0.000000E+00  0.000000E+00  0.000000E+00  0.000000E+00  0.000000E+00  0.000000E+00  0.000000E+00  0.000000E+00  4.620336E-02  1.591034E-05 -2.494912E-09  4.620335E-02                                                                                                                                                                                                                                                                                                                                                                                                                                                                                              
  6.250000E+02  1.250000E+02 -5.225000E+03  2.795785E-09 -6.832868E-12  2.382057E-15 -2.795777E-09  1.568130E-11 -3.839384E-14  1.338476E-17 -1.568126E-11  0.000000E+00  0.000000E+00  0.000000E+00  0.000000E+00  0.000000E+00  0.000000E+00  0.000000E+00  0.000000E+00  4.621709E-02  9.755793E-06  3.912307E-10  4.621709E-02                                                                                                                                                                                                                                                                                                                                                                                                                                                                                              
  7.600000E+02  1.250000E+02 -5.225000E+03  2.797020E-09 -9.775498E-13  1.838356E-15 -2.797020E-09  1.568823E-11 -5.492843E-15  1.032970E-17 -1.568823E-11  0.000000E+00  0.000000E+00  0.000000E+00  0.000000E+00  0.000000E+00  0.000000E+00  0.000000E+00  0.000000E+00  4.621853E-02  1.402149E-06  7.882892E-11  4.621853E-02                                                                                                                                                                                                                                                                                                                                                                                                                                                                                              
  7.800000E+02  1.250000E+02 -5.225000E+03  2.797082E-09  7.244918E-16  1.879301E-15 -2.797082E-09  1.568857E-11  4.070912E-18  1.055977E-17 -1.568857E-11  0.000000E+00  0.000000E+00  0.000000E+00  0.000000E+00  0.000000E+00  0.000000E+00  0.000000E+00  0.000000E+00  4.621861E-02 -9.317026E-09  2.811660E-10  4.621861E-02                                                                                                                                                                                                                                                                                                                                                                                                                                                                                              
  8.000000E+02  1.250000E+02 -5.225000E+03  2.797020E-09  9.785849E-13  2.057837E-15 -2.797020E-09  1.568823E-11  5.498658E-15  1.156296E-17 -1.568823E-11  0.000000E+00  0.000000E+00  0.000000E+00  0.000000E+00  0.000000E+00  0.000000E+00  0.000000E+00  0.000000E+00  4.621853E-02 -1.414174E-06  8.105927E-10  4.621853E-02                                                                                                                                                                                                                                                                                                                                                                                                                                                                                              
  9.350000E+02  1.250000E+02 -5.225000E+03  2.795787E-09  6.828992E-12  4.568225E-15 -2.795779E-09  1.568131E-11  3.837207E-14  2.566881E-17 -1.568127E-11  0.000000E+00  0.000000E+00  0.000000E+00  0.000000E+00  0.000000E+00  0.000000E+00  0.000000E+00  0.000000E+00  4.621709E-02 -9.762967E-06  2.929707E-09  4.621709E-02                                                                                                                                                                                                                                                                                                                                                                                                                                                                                              
  1.185000E+03  1.250000E+02 -5.225000E+03  2.782272E-09  1.122276E-11  1.006030E-15 -2.782249E-09  1.560554E-11  6.306069E-14  5.652884E-18 -1.560541E-11  0.000000E+00  0.000000E+00  0.000000E+00  0.000000E+00  0.000000E+00  0.000000E+00  0.000000E+00  0.000000E+00  4.620335E-02 -1.591235E-05 -7.359414E-10  4.620334E-02                                                                                                                                                                                                                                                                                                                                                                                                                                                                                              
  1.435000E+03  1.250000E+02 -5.225000E+03  2.772598E-09  5.126635E-12 -3.103836E-15 -2.772594E-09  1.555130E-11  2.880657E-14 -1.744047E-17 -1.555128E-11  0.000000E+00  0.000000E+00  0.000000E+00  0.000000E+00  0.000000E+00  0.000000E+00  0.000000E+00  0.000000E+00  4.619425E-02 -7.205026E-06 -4.667990E-09  4.619425E-02                                                                                                                                                                                                                                                                                                                                                                                                                                                                                              
  1.250000E+02  1.250000E+02 -4.975000E+03  5.249436E-09 -6.594277E-12 -6.030149E-16 -5.249432E-09  2.934632E-11 -3.692017E-14 -3.376176E-18 -2.934630E-11  0.000000E+00  0.000000E+00  0.000000E+00  0.000000E+00  0.000000E+00  0.000000E+00  0.000000E+00  0.000000E+00  8.465757E-02  1.922418E-05 -7.250733E-10  8.465757E-02                                                                                                                                                                                                                                                                                                                                                                                                                                                                                              
  3.750000E+02  1.250000E+02 -4.975000E+03  5.267358E-09 -1.553083E-11 -3.042787E-15 -5.267336E-09  2.944642E-11 -8.695414E-14 -1.703599E-17 -2.944629E-11  0.000000E+00  0.000000E+00  0.000000E+00  0.000000E+00  0.000000E+00  0.000000E+00  0.000000E+00  0.000000E+00  8.468312E-02  4.533205E-05 -1.521465E-09  8.468311E-02                                                                                                                                                                                                                                                                                                                                                                                                                                                                                              
  6.250000E+02  1.250000E+02 -4.975000E+03  5.296754E-09 -1.042924E-11  2.578048E-16 -5.296744E-09  2.961056E-11 -5.839124E-14  1.443395E-18 -2.961050E-11  0.000000E+00  0.000000E+00  0.000000E+00  0.000000E+00  0.000000E+00  0.000000E+00  0.000000E+00  0.000000E+00  8.473204E-02  3.042392E-05 -4.698055E-10  8.473203E-02                                                                                                                                                                                                                                                                                                                                                                                                                                                                                              
  7.600000E+02  1.250000E+02 -4.975000E+03  5.303581E-09 -1.998895E-12  1.325352E-15 -5.303580E-09  2.964865E-11 -1.119140E-14  7.420366E-18 -2.964865E-11  0.000000E+00  0.000000E+00  0.000000E+00  0.000000E+00  0.000000E+00  0.000000E+00  0.000000E+00  0.000000E+00  8.474829E-02  5.767159E-06 -4.465876E-11  8.474829E-02                                                                                                                                                                                                                                                                                                                                                                                                                                                                                              
  7.800000E+02  1.250000E+02 -4.975000E+03  5.303927E-09 -7.008979E-15  1.471496E-15 -5.303927E-09  2.965058E-11 -3.924180E-17  8.238597E-18 -2.965058E-11  0.000000E+00  0.000000E+00  0.000000E+00  0.000000E+00  0.000000E+00  0.000000E+00  0.000000E+00  0.000000E+00  8.474912E-02 -1.212673E-08  2.844778E-10  8.474912E-02                                                                                                                                                                                                                                                                                                                                                                                                                                                                                              
  8.000000E+02  1.250000E+02 -4.975000E+03  5.303581E-09  1.985303E-12  1.651543E-15 -5.303581E-09  2.964865E-11  1.111530E-14  9.246642E-18 -2.964865E-11  0.000000E+00  0.000000E+00  0.000000E+00  0.000000E+00  0.000000E+00  0.000000E+00  0.000000E+00  0.000000E+00  8.474829E-02 -5.786921E-06  4.243834E-10  8.474829E-02                                                                                                                                                                                                                                                                                                                                                                                                                                                                                              
  9.350000E+02  1.250000E+02 -4.975000E+03  5.296757E-09  1.041875E-11  2.250184E-15 -5.296747E-09  2.961058E-11  5.833252E-14  1.259831E-17 -2.961052E-11  0.000000E+00  0.000000E+00  0.000000E+00  0.000000E+00  0.000000E+00  0.000000E+00  0.000000E+00  0.000000E+00  8.473204E-02 -3.043309E-05  2.327910E-09  8.473203E-02                                                                                                                                                                                                                                                                                                                                                                                                                                                                                              
  1.185000E+03  1.250000E+02 -4.975000E+03  5.267356E-09  1.552813E-11  1.050728E-15 -5.267333E-09  2.944640E-11  8.693904E-14  5.882831E-18 -2.944627E-11  0.000000E+00  0.000000E+00  0.000000E+00  0.000000E+00  0.000000E+00  0.000000E+00  0.000000E+00  0.000000E+00  8.468313E-02 -4.533268E-05 -2.203166E-09  8.468312E-02                                                                                                                                                                                                                                                                                                                                                                                                                                                                                              
  1.435000E+03  1.250000E+02 -4.975000E+03  5.249431E-09  6.595485E-12 -1.966627E-15 -5.249427E-09  2.934630E-11  3.692693E-14 -1.101080E-17 -2.934627E-11  0.000000E+00  0.000000E+00  0.000000E+00  0.000000E+00  0.000000E+00  0.000000E+00  0.000000E+00  0.000000E+00  8.465757E-02 -1.922328E-05 -1.507878E-09  8.465757E-02                                                                                                                                                                                                                                                                                                                                                                                                                                                                                              
  1.250000E+02  1.250000E+02 -4.725000E+03  7.092594E-09 -6.546143E-12  1.669760E-15 -7.092590E-09  3.946887E-11 -3.644862E-14  9.297170E-18 -3.946885E-11  0.000000E+00  0.000000E+00  0.000000E+00  0.000000E+00  0.000000E+00  0.000000E+00  0.000000E+00  0.000000E+00  1.174197E-01  4.687014E-05  1.226289E-09  1.174197E-01                                                                                                                                                                                                                                                                                                                                                                                                                                                                                              
  3.750000E+02  1.250000E+02 -4.725000E+03  7.116355E-09 -1.762242E-11  9.853433E-16 -7.116333E-09  3.960089E-11 -9.812036E-14  5.486330E-18 -3.960076E-11  0.000000E+00  0.000000E+00  0.000000E+00  0.000000E+00  0.000000E+00  0.000000E+00  0.000000E+00  0.000000E+00  1.174678E-01  1.253404E-04  1.457764E-09  1.174678E-01                                                                                                                                                                                                                                                                                                                                                                                                                                                                                              
  6.250000E+02  1.250000E+02 -4.725000E+03  7.164829E-09 -1.661102E-11 -2.982025E-16 -7.164810E-09  3.987017E-11 -9.248851E-14 -1.660358E-18 -3.987006E-11  0.000000E+00  0.000000E+00  0.000000E+00  0.000000E+00  0.000000E+00  0.000000E+00  0.000000E+00  0.000000E+00  1.176082E-01  1.162387E-04  2.375237E-10  1.176081E-01                                                                                                                                                                                                                                                                                                                                                                                                                                                                                              
  7.600000E+02  1.250000E+02 -4.725000E+03  7.216245E-09 -7.432629E-12  7.692545E-17 -7.216241E-09  4.015548E-11 -4.138397E-14  4.283112E-19 -4.015546E-11  0.000000E+00  0.000000E+00  0.000000E+00  0.000000E+00  0.000000E+00  0.000000E+00  0.000000E+00  0.000000E+00  1.179057E-01  5.070476E-05 -6.880745E-10  1.179057E-01                                                                                                                                                                                                                                                                                                                                                                                                                                                                                              
  7.800000E+02  1.250000E+02 -4.725000E+03  7.218741E-09 -5.999704E-15  2.073471E-16 -7.218741E-09  4.016933E-11 -3.340559E-17  1.154482E-18 -4.016933E-11  0.000000E+00  0.000000E+00  0.000000E+00  0.000000E+00  0.000000E+00  0.000000E+00  0.000000E+00  0.000000E+00  1.179201E-01  2.985632E-09 -8.099348E-10  1.179201E-01                                                                                                                                                                                                                                                                                                                                                                                                                                                                                              
  8.000000E+02  1.250000E+02 -4.725000E+03  7.216244E-09  7.420772E-12  3.301941E-16 -7.216240E-09  4.015548E-11  4.131796E-14  1.838479E-18 -4.015546E-11  0.000000E+00  0.000000E+00  0.000000E+00  0.000000E+00  0.000000E+00  0.000000E+00  0.000000E+00  0.000000E+00  1.179057E-01 -5.070447E-05 -1.057867E-09  1.179057E-01                                                                                                                                                                                                                                                                                                                                                                                                                                                                                              
  9.350000E+02  1.250000E+02 -4.725000E+03  7.164822E-09  1.660745E-11  1.281808E-15 -7.164803E-09  3.987013E-11  9.246867E-14  7.136961E-18 -3.987002E-11  0.000000E+00  0.000000E+00  0.000000E+00  0.000000E+00  0.000000E+00  0.000000E+00  0.000000E+00  0.000000E+00  1.176082E-01 -1.162412E-04  2.024205E-10  1.176081E-01                                                                                                                                                                                                                                                                                                                                                                                                                                                                                              
  1.185000E+03  1.250000E+02 -4.725000E+03  7.116345E-09  1.762678E-11  1.364678E-16 -7.116323E-09  3.960083E-11  9.814464E-14  7.598444E-19 -3.960071E-11  0.000000E+00  0.000000E+00  0.000000E+00  0.000000E+00  0.000000E+00  0.000000E+00  0.000000E+00  0.000000E+00  1.174679E-01 -1.253391E-04 -4.478430E-10  1.174678E-01                                                                                                                                                                                                                                                                                                                                                                                                                                                                                              