Title="TOUGHREACT V3.30-OMP flowvector.tec: Liq & Gas Fluxes (kg/s/m^2), Pore Velocities (m/s), & Heat Fluxes (J/s/m2)"                                                                                                                                                                                                                                                                                                                                                                                                                                                                                                                                                                                                                                                                                                         
Variables= "X(m)"     "Y(m)"      "Z(m)"     "FluxLiq"   "FluxLiq_X"   "FluxLiq_Y"   "FluxLiq_Z"   "PorVelLiq"  "PorVelLiqX"  "PorVelLiqY"  "PorVelLiqZ"     "FluxGas"   "FluxGas_X"   "FluxGas_Y"   "FluxGas_Z"   "PorVelGas"  "PorVelGasX"  "PorVelGasY"  "PorVelGasZ"    "HeatFlux"  "HeatFlux_X"  "HeatFlux_Y"  "HeatFlux_Z"                                                                                                                                                                                                                                                                                                                                                                                                                                                                                                
Zone T= "2.00000000E+11 sec" I=     9 J=    10 K=    23 F=Point
  1.250000E+02  1.250000E+02 -5.425000E+03  1.254279E-10 -1.102094E-12  2.822864E-16 -1.254231E-10  7.059964E-13 -6.222253E-15  1.593745E-18 -7.059690E-13  0.000000E+00  0.000000E+00  0.000000E+00  0.000000E+00  0.000000E+00  0.000000E+00  0.000000E+00  0.000000E+00  6.136249E-02  7.335184E-07  7.140272E-11  6.136249E-02                                                                                                                                                                                                                                                                                                                                                                                                                                                                                              
  3.750000E+02  1.250000E+02 -5.425000E+03  1.260095E-10 -2.361035E-12  3.989731E-16 -1.259874E-10  7.092702E-13 -1.333003E-14  2.252540E-18 -7.091450E-13  0.000000E+00  0.000000E+00  0.000000E+00  0.000000E+00  0.000000E+00  0.000000E+00  0.000000E+00  0.000000E+00  6.136282E-02  1.584422E-06  1.827445E-10  6.136282E-02                                                                                                                                                                                                                                                                                                                                                                                                                                                                                              
  6.250000E+02  1.250000E+02 -5.425000E+03  1.267559E-10 -1.403795E-12  2.322268E-16 -1.267481E-10  7.134710E-13 -7.925609E-15  1.311116E-18 -7.134270E-13  0.000000E+00  0.000000E+00  0.000000E+00  0.000000E+00  0.000000E+00  0.000000E+00  0.000000E+00  0.000000E+00  6.136331E-02  9.495217E-07  1.379273E-10  6.136331E-02                                                                                                                                                                                                                                                                                                                                                                                                                                                                                              
  7.600000E+02  1.250000E+02 -5.425000E+03  1.268034E-10 -1.931369E-13  2.449817E-16 -1.268033E-10  7.137382E-13 -1.090421E-15  1.383128E-18 -7.137373E-13  0.000000E+00  0.000000E+00  0.000000E+00  0.000000E+00  0.000000E+00  0.000000E+00  0.000000E+00  0.000000E+00  6.136335E-02  1.308460E-07 -7.098160E-13  6.136335E-02                                                                                                                                                                                                                                                                                                                                                                                                                                                                                              
  7.800000E+02  1.250000E+02 -5.425000E+03  1.268060E-10  4.778425E-16  2.446740E-16 -1.268060E-10  7.137527E-13  2.697824E-18  1.381391E-18 -7.137527E-13  0.000000E+00  0.000000E+00  0.000000E+00  0.000000E+00  0.000000E+00  0.000000E+00  0.000000E+00  0.000000E+00  6.136335E-02 -6.879436E-10  6.960734E-11  6.136335E-02                                                                                                                                                                                                                                                                                                                                                                                                                                                                                              
  8.000000E+02  1.250000E+02 -5.425000E+03  1.268034E-10  1.943441E-13  2.351358E-16 -1.268033E-10  7.137382E-13  1.097236E-15  1.327540E-18 -7.137374E-13  0.000000E+00  0.000000E+00  0.000000E+00  0.000000E+00  0.000000E+00  0.000000E+00  0.000000E+00  0.000000E+00  6.136335E-02 -1.310666E-07  1.080790E-10  6.136335E-02                                                                                                                                                                                                                                                                                                                                                                                                                                                                                              
  9.350000E+02  1.250000E+02 -5.425000E+03  1.267562E-10  1.404705E-12  3.710855E-17 -1.267485E-10  7.134728E-13  7.930744E-15  2.095091E-19 -7.134287E-13  0.000000E+00  0.000000E+00  0.000000E+00  0.000000E+00  0.000000E+00  0.000000E+00  0.000000E+00  0.000000E+00  6.136331E-02 -9.486759E-07  5.499086E-11  6.136331E-02                                                                                                                                                                                                                                                                                                                                                                                                                                                                                              
  1.185000E+03  1.250000E+02 -5.425000E+03  1.260101E-10  2.361840E-12 -1.012001E-16 -1.259880E-10  7.092739E-13  1.333458E-14 -5.713601E-19 -7.091486E-13  0.000000E+00  0.000000E+00  0.000000E+00  0.000000E+00  0.000000E+00  0.000000E+00  0.000000E+00  0.000000E+00  6.136282E-02 -1.583812E-06 -7.848002E-11  6.136282E-02                                                                                                                                                                                                                                                                                                                                                                                                                                                                                              
  1.435000E+03  1.250000E+02 -5.425000E+03  1.254292E-10  1.102719E-12 -5.137769E-16 -1.254244E-10  7.060038E-13  6.225783E-15 -2.900705E-18 -7.059763E-13  0.000000E+00  0.000000E+00  0.000000E+00  0.000000E+00  0.000000E+00  0.000000E+00  0.000000E+00  0.000000E+00  6.136248E-02 -7.332873E-07 -4.451177E-10  6.136248E-02                                                                                                                                                                                                                                                                                                                                                                                                                                                                                              
  1.250000E+02  1.250000E+02 -5.225000E+03  4.718620E-10 -1.043029E-12  6.642265E-17 -4.718608E-10  2.644310E-12 -5.858320E-15  3.730723E-19 -2.644303E-12  0.000000E+00  0.000000E+00  0.000000E+00  0.000000E+00  0.000000E+00  0.000000E+00  0.000000E+00  0.000000E+00  1.252001E-01  1.475727E-06 -1.428425E-10  1.252001E-01                                                                                                                                                                                                                                                                                                                                                                                                                                                                                              
  3.750000E+02  1.250000E+02 -5.225000E+03  4.738189E-10 -2.304642E-12 -1.188170E-16 -4.738133E-10  2.655277E-12 -1.294435E-14 -6.673527E-19 -2.655245E-12  0.000000E+00  0.000000E+00  0.000000E+00  0.000000E+00  0.000000E+00  0.000000E+00  0.000000E+00  0.000000E+00  1.252019E-01  3.279502E-06 -5.036434E-10  1.252019E-01                                                                                                                                                                                                                                                                                                                                                                                                                                                                                              
  6.250000E+02  1.250000E+02 -5.225000E+03  4.766604E-10 -1.415685E-12 -1.429438E-17 -4.766583E-10  2.671199E-12 -7.951395E-15 -8.028641E-20 -2.671188E-12  0.000000E+00  0.000000E+00  0.000000E+00  0.000000E+00  0.000000E+00  0.000000E+00  0.000000E+00  0.000000E+00  1.252048E-01  2.026096E-06  5.318069E-11  1.252048E-01                                                                                                                                                                                                                                                                                                                                                                                                                                                                                              
  7.600000E+02  1.250000E+02 -5.225000E+03  4.769430E-10 -2.055589E-13  1.891321E-16 -4.769429E-10  2.672782E-12 -1.154550E-15  1.062287E-18 -2.672782E-12  0.000000E+00  0.000000E+00  0.000000E+00  0.000000E+00  0.000000E+00  0.000000E+00  0.000000E+00  0.000000E+00  1.252052E-01  2.969092E-07  1.396546E-10  1.252052E-01                                                                                                                                                                                                                                                                                                                                                                                                                                                                                              
  7.800000E+02  1.250000E+02 -5.225000E+03  4.769572E-10  3.313093E-16  1.982852E-16 -4.769572E-10  2.672862E-12  1.860845E-18  1.113697E-18 -2.672862E-12  0.000000E+00  0.000000E+00  0.000000E+00  0.000000E+00  0.000000E+00  0.000000E+00  0.000000E+00  0.000000E+00  1.252052E-01  4.292135E-10  1.071781E-10  1.252052E-01                                                                                                                                                                                                                                                                                                                                                                                                                                                                                              
  8.000000E+02  1.250000E+02 -5.225000E+03  4.769431E-10  2.060853E-13  2.157470E-16 -4.769430E-10  2.672783E-12  1.157507E-15  1.211773E-18 -2.672783E-12  0.000000E+00  0.000000E+00  0.000000E+00  0.000000E+00  0.000000E+00  0.000000E+00  0.000000E+00  0.000000E+00  1.252052E-01 -2.965730E-07  1.527143E-10  1.252052E-01                                                                                                                                                                                                                                                                                                                                                                                                                                                                                              
  9.350000E+02  1.250000E+02 -5.225000E+03  4.766612E-10  1.415817E-12  4.463484E-16 -4.766591E-10  2.671204E-12  7.952137E-15  2.506978E-18 -2.671192E-12  0.000000E+00  0.000000E+00  0.000000E+00  0.000000E+00  0.000000E+00  0.000000E+00  0.000000E+00  0.000000E+00  1.252048E-01 -2.026325E-06  4.589261E-10  1.252048E-01                                                                                                                                                                                                                                                                                                                                                                                                                                                                                              
  1.185000E+03  1.250000E+02 -5.225000E+03  4.738194E-10  2.304619E-12 -2.359448E-18 -4.738138E-10  2.655280E-12  1.294422E-14 -1.325217E-20 -2.655248E-12  0.000000E+00  0.000000E+00  0.000000E+00  0.000000E+00  0.000000E+00  0.000000E+00  0.000000E+00  0.000000E+00  1.252019E-01 -3.279582E-06 -2.010993E-10  1.252019E-01                                                                                                                                                                                                                                                                                                                                                                                                                                                                                              
  1.435000E+03  1.250000E+02 -5.225000E+03  4.718636E-10  1.043070E-12 -9.006306E-18 -4.718624E-10  2.644319E-12  5.858549E-15 -5.058521E-20 -2.644312E-12  0.000000E+00  0.000000E+00  0.000000E+00  0.000000E+00  0.000000E+00  0.000000E+00  0.000000E+00  0.000000E+00  1.252001E-01 -1.475671E-06 -2.070826E-10  1.252001E-01                                                                                                                                                                                                                                                                                                                                                                                                                                                                                              
  1.250000E+02  1.250000E+02 -4.975000E+03  9.525151E-10 -1.340918E-12  2.166316E-16 -9.525141E-10  5.306771E-12 -7.481727E-15  1.208708E-18 -5.306766E-12  0.000000E+00  0.000000E+00  0.000000E+00  0.000000E+00  0.000000E+00  0.000000E+00  0.000000E+00  0.000000E+00  1.307336E-01  3.894187E-06 -4.553130E-10  1.307336E-01                                                                                                                                                                                                                                                                                                                                                                                                                                                                                              
  3.750000E+02  1.250000E+02 -4.975000E+03  9.561016E-10 -3.223336E-12  6.087630E-16 -9.560962E-10  5.326753E-12 -1.798477E-14  3.396625E-18 -5.326722E-12  0.000000E+00  0.000000E+00  0.000000E+00  0.000000E+00  0.000000E+00  0.000000E+00  0.000000E+00  0.000000E+00  1.307390E-01  9.380347E-06  3.220245E-11  1.307390E-01                                                                                                                                                                                                                                                                                                                                                                                                                                                                                              
  6.250000E+02  1.250000E+02 -4.975000E+03  9.623690E-10 -2.222914E-12  7.039235E-17 -9.623665E-10  5.361658E-12 -1.240286E-14  3.927576E-19 -5.361643E-12  0.000000E+00  0.000000E+00  0.000000E+00  0.000000E+00  0.000000E+00  0.000000E+00  0.000000E+00  0.000000E+00  1.307501E-01  6.480636E-06 -5.212695E-10  1.307501E-01                                                                                                                                                                                                                                                                                                                                                                                                                                                                                              
  7.600000E+02  1.250000E+02 -4.975000E+03  9.640972E-10 -4.561094E-13  2.672393E-16 -9.640971E-10  5.371270E-12 -2.544884E-15  1.491075E-18 -5.371269E-12  0.000000E+00  0.000000E+00  0.000000E+00  0.000000E+00  0.000000E+00  0.000000E+00  0.000000E+00  0.000000E+00  1.307545E-01  1.331061E-06 -2.296992E-11  1.307545E-01                                                                                                                                                                                                                                                                                                                                                                                                                                                                                              
  7.800000E+02  1.250000E+02 -4.975000E+03  9.641851E-10 -1.022531E-15  3.149462E-16 -9.641851E-10  5.371758E-12 -5.705259E-18  1.757257E-18 -5.371758E-12  0.000000E+00  0.000000E+00  0.000000E+00  0.000000E+00  0.000000E+00  0.000000E+00  0.000000E+00  0.000000E+00  1.307547E-01 -1.514571E-09 -8.826552E-12  1.307547E-01                                                                                                                                                                                                                                                                                                                                                                                                                                                                                              
  8.000000E+02  1.250000E+02 -4.975000E+03  9.640973E-10  4.543590E-13  3.693374E-16 -9.640972E-10  5.371270E-12  2.535118E-15  2.060736E-18 -5.371269E-12  0.000000E+00  0.000000E+00  0.000000E+00  0.000000E+00  0.000000E+00  0.000000E+00  0.000000E+00  0.000000E+00  1.307545E-01 -1.333683E-06  5.665671E-11  1.307545E-01                                                                                                                                                                                                                                                                                                                                                                                                                                                                                              
  9.350000E+02  1.250000E+02 -4.975000E+03  9.623692E-10  2.222777E-12  5.653580E-16 -9.623667E-10  5.361659E-12  1.240210E-14  3.154442E-18 -5.361644E-12  0.000000E+00  0.000000E+00  0.000000E+00  0.000000E+00  0.000000E+00  0.000000E+00  0.000000E+00  0.000000E+00  1.307501E-01 -6.481110E-06  2.552202E-10  1.307501E-01                                                                                                                                                                                                                                                                                                                                                                                                                                                                                              
  1.185000E+03  1.250000E+02 -4.975000E+03  9.561013E-10  3.223517E-12  3.112545E-16 -9.560959E-10  5.326751E-12  1.798578E-14  1.736661E-18 -5.326721E-12  0.000000E+00  0.000000E+00  0.000000E+00  0.000000E+00  0.000000E+00  0.000000E+00  0.000000E+00  0.000000E+00  1.307390E-01 -9.380471E-06 -1.926341E-10  1.307390E-01                                                                                                                                                                                                                                                                                                                                                                                                                                                                                              
  1.435000E+03  1.250000E+02 -4.975000E+03  9.525146E-10  1.340510E-12  4.804940E-16 -9.525137E-10  5.306769E-12  7.479446E-15  2.680943E-18 -5.306763E-12  0.000000E+00  0.000000E+00  0.000000E+00  0.000000E+00  0.000000E+00  0.000000E+00  0.000000E+00  0.000000E+00  1.307336E-01 -3.894944E-06  2.394921E-10  1.307336E-01                                                                                                                                                                                                                                                                                                                                                                                                                                                                                              
  1.250000E+02  1.250000E+02 -4.725000E+03  1.515415E-09 -1.330904E-12  2.411432E-16 -1.515414E-09  8.393669E-12 -7.375577E-15  1.336363E-18 -8.393665E-12  0.000000E+00  0.000000E+00  0.000000E+00  0.000000E+00  0.000000E+00  0.000000E+00  0.000000E+00  0.000000E+00  1.375280E-01  9.633954E-06 -4.631172E-10  1.375280E-01                                                                                                                                                                                                                                                                                                                                                                                                                                                                                              
  3.750000E+02  1.250000E+02 -4.725000E+03  1.520100E-09 -3.734368E-12  1.653491E-16 -1.520095E-09  8.419618E-12 -2.069503E-14  9.163278E-19 -8.419592E-12  0.000000E+00  0.000000E+00  0.000000E+00  0.000000E+00  0.000000E+00  0.000000E+00  0.000000E+00  0.000000E+00  1.375383E-01  2.688438E-05 -1.028480E-10  1.375383E-01                                                                                                                                                                                                                                                                                                                                                                                                                                                                                              
  6.250000E+02  1.250000E+02 -4.725000E+03  1.530592E-09 -3.821535E-12 -3.076843E-16 -1.530587E-09  8.477714E-12 -2.117806E-14 -1.705115E-18 -8.477688E-12  0.000000E+00  0.000000E+00  0.000000E+00  0.000000E+00  0.000000E+00  0.000000E+00  0.000000E+00  0.000000E+00  1.375714E-01  2.717823E-05 -9.116440E-10  1.375714E-01                                                                                                                                                                                                                                                                                                                                                                                                                                                                                              
  7.600000E+02  1.250000E+02 -4.725000E+03  1.544260E-09 -1.904819E-12 -1.903397E-16 -1.544258E-09  8.553271E-12 -1.055606E-14 -1.054818E-18 -8.553264E-12  0.000000E+00  0.000000E+00  0.000000E+00  0.000000E+00  0.000000E+00  0.000000E+00  0.000000E+00  0.000000E+00  1.376540E-01  1.333433E-05 -7.338144E-10  1.376540E-01                                                                                                                                                                                                                                                                                                                                                                                                                                                                                              
  7.800000E+02  1.250000E+02 -4.725000E+03  1.544933E-09 -1.968004E-16 -1.570107E-16 -1.544933E-09  8.556991E-12 -1.090621E-18 -8.701163E-19 -8.556991E-12  0.000000E+00  0.000000E+00  0.000000E+00  0.000000E+00  0.000000E+00  0.000000E+00  0.000000E+00  0.000000E+00  1.376580E-01  8.854243E-10 -8.087011E-10  1.376580E-01                                                                                                                                                                                                                                                                                                                                                                                                                                                                                              
  8.000000E+02  1.250000E+02 -4.725000E+03  1.544259E-09  1.904351E-12 -1.423011E-16 -1.544258E-09  8.553270E-12  1.055346E-14 -7.885992E-19 -8.553264E-12  0.000000E+00  0.000000E+00  0.000000E+00  0.000000E+00  0.000000E+00  0.000000E+00  0.000000E+00  0.000000E+00  1.376540E-01 -1.333362E-05 -8.665357E-10  1.376540E-01                                                                                                                                                                                                                                                                                                                                                                                                                                                                                              
  9.350000E+02  1.250000E+02 -4.725000E+03  1.530592E-09  3.821733E-12  5.353509E-17 -1.530587E-09  8.477711E-12  2.117916E-14  2.966790E-19 -8.477685E-12  0.000000E+00  0.000000E+00  0.000000E+00  0.000000E+00  0.000000E+00  0.000000E+00  0.000000E+00  0.000000E+00  1.375715E-01 -2.717797E-05 -8.791520E-10  1.375714E-01                                                                                                                                                                                                                                                                                                                                                                                                                                                                                              
  1.185000E+03  1.250000E+02 -4.725000E+03  1.520100E-09  3.734843E-12 -4.892008E-16 -1.520096E-09  8.419620E-12  2.069766E-14 -2.711042E-18 -8.419595E-12  0.000000E+00  0.000000E+00  0.000000E+00  0.000000E+00  0.000000E+00  0.000000E+00  0.000000E+00  0.000000E+00  1.375383E-01 -2.688445E-05 -1.277636E-09  1.375383E-01                                                                                                                                                                                                                                                                                                                                                                                                                                                                                              