Title="TOUGHREACT V3.30-OMP flowvector.tec: Liq & Gas Fluxes (kg/s/m^2), Pore Velocities (m/s), & Heat Fluxes (J/s/m2)"                                                                                                                                                                                                                                                                                                                                                                                                                                                                                                                                                                                                                                                                                                         
Variables= "X(m)"     "Y(m)"      "Z(m)"     "FluxLiq"   "FluxLiq_X"   "FluxLiq_Y"   "FluxLiq_Z"   "PorVelLiq"  "PorVelLiqX"  "PorVelLiqY"  "PorVelLiqZ"     "FluxGas"   "FluxGas_X"   "FluxGas_Y"   "FluxGas_Z"   "PorVelGas"  "PorVelGasX"  "PorVelGasY"  "PorVelGasZ"    "HeatFlux"  "HeatFlux_X"  "HeatFlux_Y"  "HeatFlux_Z"                                                                                                                                                                                                                                                                                                                                                                                                                                                                                                
Zone T= "3.15569000E+08 sec" I=     9 J=    10 K=    23 F=Point
  1.250000E+02  1.250000E+02 -5.425000E+03  2.825184E-09 -5.345368E-12 -5.796677E-15  2.825179E-09  1.589102E-11 -3.006872E-14 -3.260744E-17  1.589099E-11  0.000000E+00  0.000000E+00  0.000000E+00  0.000000E+00  0.000000E+00  0.000000E+00  0.000000E+00  0.000000E+00  1.717923E-02  3.577389E-06 -7.755142E-09  1.717923E-02                                                                                                                                                                                                                                                                                                                                                                                                                                                                                              
  3.750000E+02  1.250000E+02 -5.425000E+03  2.822397E-09 -1.142660E-11 -5.768850E-15  2.822374E-09  1.587533E-11 -6.427677E-14 -3.245087E-17  1.587520E-11  0.000000E+00  0.000000E+00  0.000000E+00  0.000000E+00  0.000000E+00  0.000000E+00  0.000000E+00  0.000000E+00  1.718099E-02  7.701717E-06 -1.802194E-09  1.718099E-02                                                                                                                                                                                                                                                                                                                                                                                                                                                                                              
  6.250000E+02  1.250000E+02 -5.425000E+03  2.818742E-09 -6.766627E-12  8.598450E-15  2.818734E-09  1.585475E-11 -3.806353E-14  4.836785E-17  1.585470E-11  0.000000E+00  0.000000E+00  0.000000E+00  0.000000E+00  0.000000E+00  0.000000E+00  0.000000E+00  0.000000E+00  1.718344E-02  4.614288E-06  8.307298E-09  1.718344E-02                                                                                                                                                                                                                                                                                                                                                                                                                                                                                              
  7.600000E+02  1.250000E+02 -5.425000E+03  2.818470E-09 -9.101091E-13  2.156739E-15  2.818470E-09  1.585322E-11 -5.119530E-15  1.213205E-17  1.585322E-11  0.000000E+00  0.000000E+00  0.000000E+00  0.000000E+00  0.000000E+00  0.000000E+00  0.000000E+00  0.000000E+00  1.718361E-02  6.551349E-07  1.434248E-10  1.718361E-02                                                                                                                                                                                                                                                                                                                                                                                                                                                                                              
  7.800000E+02  1.250000E+02 -5.425000E+03  2.818456E-09  1.057814E-14  1.931117E-15  2.818456E-09  1.585314E-11  5.950395E-17  1.086289E-17  1.585314E-11  0.000000E+00  0.000000E+00  0.000000E+00  0.000000E+00  0.000000E+00  0.000000E+00  0.000000E+00  0.000000E+00  1.718362E-02 -1.719165E-09  6.052595E-10  1.718362E-02                                                                                                                                                                                                                                                                                                                                                                                                                                                                                              
  8.000000E+02  1.250000E+02 -5.425000E+03  2.818469E-09  9.290984E-13  2.418487E-15  2.818469E-09  1.585321E-11  5.226349E-15  1.360443E-17  1.585321E-11  0.000000E+00  0.000000E+00  0.000000E+00  0.000000E+00  0.000000E+00  0.000000E+00  0.000000E+00  0.000000E+00  1.718361E-02 -6.477495E-07  2.180764E-09  1.718361E-02                                                                                                                                                                                                                                                                                                                                                                                                                                                                                              
  9.350000E+02  1.250000E+02 -5.425000E+03  2.818736E-09  6.768149E-12  4.148653E-15  2.818728E-09  1.585471E-11  3.807209E-14  2.333694E-17  1.585467E-11  0.000000E+00  0.000000E+00  0.000000E+00  0.000000E+00  0.000000E+00  0.000000E+00  0.000000E+00  0.000000E+00  1.718344E-02 -4.608512E-06  2.062261E-09  1.718344E-02                                                                                                                                                                                                                                                                                                                                                                                                                                                                                              
  1.185000E+03  1.250000E+02 -5.425000E+03  2.822402E-09  1.143647E-11  7.853088E-15  2.822379E-09  1.587536E-11  6.433228E-14  4.417510E-17  1.587523E-11  0.000000E+00  0.000000E+00  0.000000E+00  0.000000E+00  0.000000E+00  0.000000E+00  0.000000E+00  0.000000E+00  1.718099E-02 -7.690147E-06  8.007948E-09  1.718098E-02                                                                                                                                                                                                                                                                                                                                                                                                                                                                                              
  1.435000E+03  1.250000E+02 -5.425000E+03  2.825170E-09  5.362125E-12  2.109255E-15  2.825165E-09  1.589094E-11  3.016298E-14  1.186497E-17  1.589091E-11  0.000000E+00  0.000000E+00  0.000000E+00  0.000000E+00  0.000000E+00  0.000000E+00  0.000000E+00  0.000000E+00  1.717921E-02 -3.562492E-06  2.771684E-09  1.717921E-02                                                                                                                                                                                                                                                                                                                                                                                                                                                                                              
  1.250000E+02  1.250000E+02 -5.225000E+03  3.403278E-09 -5.169642E-12 -3.814004E-15  3.403274E-09  1.913529E-11 -2.904715E-14 -2.143011E-17  1.913527E-11  0.000000E+00  0.000000E+00  0.000000E+00  0.000000E+00  0.000000E+00  0.000000E+00  0.000000E+00  0.000000E+00  5.277122E-02  7.166462E-06 -5.791454E-09  5.277122E-02                                                                                                                                                                                                                                                                                                                                                                                                                                                                                              
  3.750000E+02  1.250000E+02 -5.225000E+03  3.393554E-09 -1.131430E-11  2.158400E-15  3.393535E-09  1.908066E-11 -6.357265E-14  1.212760E-17  1.908055E-11  0.000000E+00  0.000000E+00  0.000000E+00  0.000000E+00  0.000000E+00  0.000000E+00  0.000000E+00  0.000000E+00  5.278007E-02  1.582494E-05 -7.942659E-10  5.278007E-02                                                                                                                                                                                                                                                                                                                                                                                                                                                                                              
  6.250000E+02  1.250000E+02 -5.225000E+03  3.379911E-09 -6.884012E-12  1.290359E-15  3.379904E-09  1.900402E-11 -3.867979E-14  7.250248E-18  1.900398E-11  0.000000E+00  0.000000E+00  0.000000E+00  0.000000E+00  0.000000E+00  0.000000E+00  0.000000E+00  0.000000E+00  5.279347E-02  9.704217E-06 -1.375783E-10  5.279347E-02                                                                                                                                                                                                                                                                                                                                                                                                                                                                                              
  7.600000E+02  1.250000E+02 -5.225000E+03  3.378642E-09 -9.863152E-13  8.087330E-16  3.378642E-09  1.899689E-11 -5.541890E-15  4.544094E-18  1.899689E-11  0.000000E+00  0.000000E+00  0.000000E+00  0.000000E+00  0.000000E+00  0.000000E+00  0.000000E+00  0.000000E+00  5.279487E-02  1.397834E-06 -4.238480E-10  5.279487E-02                                                                                                                                                                                                                                                                                                                                                                                                                                                                                              
  7.800000E+02  1.250000E+02 -5.225000E+03  3.378578E-09  1.776013E-15  7.990876E-16  3.378578E-09  1.899653E-11  9.979029E-18  4.489899E-18  1.899653E-11  0.000000E+00  0.000000E+00  0.000000E+00  0.000000E+00  0.000000E+00  0.000000E+00  0.000000E+00  0.000000E+00  5.279494E-02  5.257712E-09 -4.606212E-10  5.279494E-02                                                                                                                                                                                                                                                                                                                                                                                                                                                                                              
  8.000000E+02  1.250000E+02 -5.225000E+03  3.378641E-09  9.880931E-13  6.959923E-16  3.378641E-09  1.899689E-11  5.551879E-15  3.910629E-18  1.899689E-11  0.000000E+00  0.000000E+00  0.000000E+00  0.000000E+00  0.000000E+00  0.000000E+00  0.000000E+00  0.000000E+00  5.279487E-02 -1.397528E-06 -1.064105E-09  5.279487E-02                                                                                                                                                                                                                                                                                                                                                                                                                                                                                              
  9.350000E+02  1.250000E+02 -5.225000E+03  3.379907E-09  6.886406E-12  1.877276E-15  3.379900E-09  1.900400E-11  3.869324E-14  1.054801E-17  1.900396E-11  0.000000E+00  0.000000E+00  0.000000E+00  0.000000E+00  0.000000E+00  0.000000E+00  0.000000E+00  0.000000E+00  5.279347E-02 -9.708117E-06  1.469177E-09  5.279347E-02                                                                                                                                                                                                                                                                                                                                                                                                                                                                                              
  1.185000E+03  1.250000E+02 -5.225000E+03  3.393558E-09  1.131812E-11  5.830471E-15  3.393539E-09  1.908068E-11  6.359413E-14  3.276020E-17  1.908058E-11  0.000000E+00  0.000000E+00  0.000000E+00  0.000000E+00  0.000000E+00  0.000000E+00  0.000000E+00  0.000000E+00  5.278007E-02 -1.581979E-05  3.800290E-09  5.278007E-02                                                                                                                                                                                                                                                                                                                                                                                                                                                                                              
  1.435000E+03  1.250000E+02 -5.225000E+03  3.403257E-09  5.171072E-12 -1.534935E-15  3.403253E-09  1.913517E-11  2.905519E-14 -8.624487E-18  1.913515E-11  0.000000E+00  0.000000E+00  0.000000E+00  0.000000E+00  0.000000E+00  0.000000E+00  0.000000E+00  0.000000E+00  5.277120E-02 -7.162357E-06 -2.706743E-09  5.277120E-02                                                                                                                                                                                                                                                                                                                                                                                                                                                                                              
  1.250000E+02  1.250000E+02 -4.975000E+03  7.574807E-10 -6.575538E-12 -3.962428E-15 -7.574522E-10  4.208489E-12 -3.681428E-14 -2.218436E-17 -4.208328E-12  0.000000E+00  0.000000E+00  0.000000E+00  0.000000E+00  0.000000E+00  0.000000E+00  0.000000E+00  0.000000E+00  8.844989E-02  1.922676E-05 -3.598317E-09  8.844989E-02                                                                                                                                                                                                                                                                                                                                                                                                                                                                                              
  3.750000E+02  1.250000E+02 -4.975000E+03  7.756000E-10 -1.548225E-11 -3.160483E-16 -7.754454E-10  4.309802E-12 -8.667989E-14 -1.769448E-18 -4.308931E-12  0.000000E+00  0.000000E+00  0.000000E+00  0.000000E+00  0.000000E+00  0.000000E+00  0.000000E+00  0.000000E+00  8.847515E-02  4.533895E-05  8.240619E-10  8.847514E-02                                                                                                                                                                                                                                                                                                                                                                                                                                                                                              
  6.250000E+02  1.250000E+02 -4.975000E+03  8.050716E-10 -1.039048E-11 -3.643861E-16 -8.050046E-10  4.474532E-12 -5.817268E-14 -2.040069E-18 -4.474154E-12  0.000000E+00  0.000000E+00  0.000000E+00  0.000000E+00  0.000000E+00  0.000000E+00  0.000000E+00  0.000000E+00  8.852361E-02  3.043023E-05 -1.457034E-09  8.852360E-02                                                                                                                                                                                                                                                                                                                                                                                                                                                                                              
  7.600000E+02  1.250000E+02 -4.975000E+03  8.118527E-10 -1.986029E-12 -3.198248E-16 -8.118503E-10  4.512390E-12 -1.111907E-14 -1.790585E-18 -4.512376E-12  0.000000E+00  0.000000E+00  0.000000E+00  0.000000E+00  0.000000E+00  0.000000E+00  0.000000E+00  0.000000E+00  8.853978E-02  5.773944E-06 -1.278410E-09  8.853978E-02                                                                                                                                                                                                                                                                                                                                                                                                                                                                                              
  7.800000E+02  1.250000E+02 -4.975000E+03  8.121976E-10 -1.036886E-15 -1.709640E-16 -8.121976E-10  4.514315E-12 -5.805152E-18 -9.571664E-19 -4.514315E-12  0.000000E+00  0.000000E+00  0.000000E+00  0.000000E+00  0.000000E+00  0.000000E+00  0.000000E+00  0.000000E+00  8.854060E-02 -7.845152E-09 -9.906813E-10  8.854060E-02                                                                                                                                                                                                                                                                                                                                                                                                                                                                                              
  8.000000E+02  1.250000E+02 -4.975000E+03  8.118531E-10  1.988291E-12 -1.178598E-16 -8.118507E-10  4.512392E-12  1.113173E-14 -6.598551E-19 -4.512378E-12  0.000000E+00  0.000000E+00  0.000000E+00  0.000000E+00  0.000000E+00  0.000000E+00  0.000000E+00  0.000000E+00  8.853978E-02 -5.782023E-06 -8.393114E-10  8.853978E-02                                                                                                                                                                                                                                                                                                                                                                                                                                                                                              
  9.350000E+02  1.250000E+02 -4.975000E+03  8.050739E-10  1.039340E-11 -1.170965E-15 -8.050068E-10  4.474544E-12  5.818907E-14 -6.555819E-18 -4.474166E-12  0.000000E+00  0.000000E+00  0.000000E+00  0.000000E+00  0.000000E+00  0.000000E+00  0.000000E+00  0.000000E+00  8.852361E-02 -3.042877E-05 -1.002261E-09  8.852361E-02                                                                                                                                                                                                                                                                                                                                                                                                                                                                                              
  1.185000E+03  1.250000E+02 -4.975000E+03  7.756057E-10  1.547748E-11  3.556829E-15 -7.754513E-10  4.309834E-12  8.665317E-14  1.991349E-17 -4.308963E-12  0.000000E+00  0.000000E+00  0.000000E+00  0.000000E+00  0.000000E+00  0.000000E+00  0.000000E+00  0.000000E+00  8.847515E-02 -4.534131E-05  1.312831E-09  8.847514E-02                                                                                                                                                                                                                                                                                                                                                                                                                                                                                              
  1.435000E+03  1.250000E+02 -4.975000E+03  7.574893E-10  6.571137E-12  3.587791E-15 -7.574608E-10  4.208537E-12  3.678964E-14  2.008689E-17 -4.208376E-12  0.000000E+00  0.000000E+00  0.000000E+00  0.000000E+00  0.000000E+00  0.000000E+00  0.000000E+00  0.000000E+00  8.844988E-02 -1.923080E-05  3.056615E-09  8.844988E-02                                                                                                                                                                                                                                                                                                                                                                                                                                                                                              
  1.250000E+02  1.250000E+02 -4.725000E+03  4.023708E-09 -6.537537E-12 -1.417303E-15 -4.023702E-09  2.237805E-11 -3.640010E-14 -7.891365E-18 -2.237803E-11  0.000000E+00  0.000000E+00  0.000000E+00  0.000000E+00  0.000000E+00  0.000000E+00  0.000000E+00  0.000000E+00  1.198981E-01  4.683874E-05 -9.360173E-10  1.198980E-01                                                                                                                                                                                                                                                                                                                                                                                                                                                                                              
  3.750000E+02  1.250000E+02 -4.725000E+03  4.047562E-09 -1.760167E-11 -3.067336E-16 -4.047524E-09  2.251068E-11 -9.800321E-14 -1.707845E-18 -2.251047E-11  0.000000E+00  0.000000E+00  0.000000E+00  0.000000E+00  0.000000E+00  0.000000E+00  0.000000E+00  0.000000E+00  1.199460E-01  1.252438E-04  4.296832E-10  1.199459E-01                                                                                                                                                                                                                                                                                                                                                                                                                                                                                              
  6.250000E+02  1.250000E+02 -4.725000E+03  4.096172E-09 -1.657243E-11 -2.470004E-15 -4.096138E-09  2.278087E-11 -9.227212E-14 -1.375248E-17 -2.278068E-11  0.000000E+00  0.000000E+00  0.000000E+00  0.000000E+00  0.000000E+00  0.000000E+00  0.000000E+00  0.000000E+00  1.200859E-01  1.161265E-04 -1.665947E-09  1.200858E-01                                                                                                                                                                                                                                                                                                                                                                                                                                                                                              
  7.600000E+02  1.250000E+02 -4.725000E+03  4.146961E-09 -7.396836E-12 -1.501520E-15 -4.146954E-09  2.306281E-11 -4.118400E-14 -8.360135E-18 -2.306277E-11  0.000000E+00  0.000000E+00  0.000000E+00  0.000000E+00  0.000000E+00  0.000000E+00  0.000000E+00  0.000000E+00  1.203780E-01  5.065096E-05 -1.859488E-09  1.203780E-01                                                                                                                                                                                                                                                                                                                                                                                                                                                                                              
  7.800000E+02  1.250000E+02 -4.725000E+03  4.149476E-09 -3.629477E-15 -1.538338E-15 -4.149476E-09  2.307677E-11 -2.020814E-17 -8.565130E-18 -2.307677E-11  0.000000E+00  0.000000E+00  0.000000E+00  0.000000E+00  0.000000E+00  0.000000E+00  0.000000E+00  0.000000E+00  1.203924E-01  4.745721E-09 -2.334005E-09  1.203924E-01                                                                                                                                                                                                                                                                                                                                                                                                                                                                                              
  8.000000E+02  1.250000E+02 -4.725000E+03  4.146961E-09  7.388390E-12 -1.444030E-15 -4.146954E-09  2.306280E-11  4.113698E-14 -8.040044E-18 -2.306277E-11  0.000000E+00  0.000000E+00  0.000000E+00  0.000000E+00  0.000000E+00  0.000000E+00  0.000000E+00  0.000000E+00  1.203780E-01 -5.064852E-05 -2.597859E-09  1.203780E-01                                                                                                                                                                                                                                                                                                                                                                                                                                                                                              
  9.350000E+02  1.250000E+02 -4.725000E+03  4.096171E-09  1.656656E-11 -8.121114E-16 -4.096138E-09  2.278086E-11  9.223948E-14 -4.521669E-18 -2.278068E-11  0.000000E+00  0.000000E+00  0.000000E+00  0.000000E+00  0.000000E+00  0.000000E+00  0.000000E+00  0.000000E+00  1.200859E-01 -1.161313E-04 -1.700061E-09  1.200858E-01                                                                                                                                                                                                                                                                                                                                                                                                                                                                                              
  1.185000E+03  1.250000E+02 -4.725000E+03  4.047560E-09  1.759970E-11  2.551162E-15 -4.047521E-09  2.251067E-11  9.799224E-14  1.420448E-17 -2.251045E-11  0.000000E+00  0.000000E+00  0.000000E+00  0.000000E+00  0.000000E+00  0.000000E+00  0.000000E+00  0.000000E+00  1.199460E-01 -1.252478E-04  1.100652E-09  1.199459E-01                                                                                                                                                                                                                                                                                                                                                                                                                                                                                              