Title="TOUGHREACT V3.30-OMP flowvector.tec: Liq & Gas Fluxes (kg/s/m^2), Pore Velocities (m/s), & Heat Fluxes (J/s/m2)"                                                                                                                                                                                                                                                                                                                                                                                                                                                                                                                                                                                                                                                                                                         
Variables= "X(m)"     "Y(m)"      "Z(m)"     "FluxLiq"   "FluxLiq_X"   "FluxLiq_Y"   "FluxLiq_Z"   "PorVelLiq"  "PorVelLiqX"  "PorVelLiqY"  "PorVelLiqZ"     "FluxGas"   "FluxGas_X"   "FluxGas_Y"   "FluxGas_Z"   "PorVelGas"  "PorVelGasX"  "PorVelGasY"  "PorVelGasZ"    "HeatFlux"  "HeatFlux_X"  "HeatFlux_Y"  "HeatFlux_Z"                                                                                                                                                                                                                                                                                                                                                                                                                                                                                                
Zone T= "1.00000000E+07 sec" I=     9 J=    10 K=    23 F=Point
  1.250000E+02  1.250000E+02 -5.425000E+03  2.082944E-10 -5.314396E-12  4.918108E-15  2.082266E-10  1.171603E-12 -2.989287E-14  2.766381E-17  1.171222E-12  0.000000E+00  0.000000E+00  0.000000E+00  0.000000E+00  0.000000E+00  0.000000E+00  0.000000E+00  0.000000E+00  1.371705E-02  3.608178E-06  2.406027E-09  1.371705E-02                                                                                                                                                                                                                                                                                                                                                                                                                                                                                              
  3.750000E+02  1.250000E+02 -5.425000E+03  2.057613E-10 -1.133929E-11  6.971856E-15  2.054486E-10  1.157354E-12 -6.378216E-14  3.921587E-17  1.155595E-12  0.000000E+00  0.000000E+00  0.000000E+00  0.000000E+00  0.000000E+00  0.000000E+00  0.000000E+00  0.000000E+00  1.371885E-02  7.785709E-06  7.156892E-09  1.371884E-02                                                                                                                                                                                                                                                                                                                                                                                                                                                                                              
  6.250000E+02  1.250000E+02 -5.425000E+03  2.019183E-10 -6.717129E-12 -3.429844E-16  2.018065E-10  1.135737E-12 -3.778304E-14 -1.929245E-18  1.135108E-12  0.000000E+00  0.000000E+00  0.000000E+00  0.000000E+00  0.000000E+00  0.000000E+00  0.000000E+00  0.000000E+00  1.372132E-02  4.657493E-06 -2.278214E-09  1.372132E-02                                                                                                                                                                                                                                                                                                                                                                                                                                                                                              
  7.600000E+02  1.250000E+02 -5.425000E+03  2.015535E-10 -9.219596E-13 -9.899364E-16  2.015514E-10  1.133684E-12 -5.185909E-15 -5.568270E-18  1.133673E-12  0.000000E+00  0.000000E+00  0.000000E+00  0.000000E+00  0.000000E+00  0.000000E+00  0.000000E+00  0.000000E+00  1.372150E-02  6.395515E-07 -1.856694E-09  1.372150E-02                                                                                                                                                                                                                                                                                                                                                                                                                                                                                              
  7.800000E+02  1.250000E+02 -5.425000E+03  2.015387E-10  1.099359E-15 -1.158054E-15  2.015387E-10  1.133602E-12  6.183759E-18 -6.513913E-18  1.133602E-12  0.000000E+00  0.000000E+00  0.000000E+00  0.000000E+00  0.000000E+00  0.000000E+00  0.000000E+00  0.000000E+00  1.372151E-02  1.038963E-09 -1.745389E-09  1.372151E-02                                                                                                                                                                                                                                                                                                                                                                                                                                                                                              
  8.000000E+02  1.250000E+02 -5.425000E+03  2.015538E-10  9.200267E-13 -1.209076E-15  2.015517E-10  1.133686E-12  5.175037E-15 -6.800905E-18  1.133674E-12  0.000000E+00  0.000000E+00  0.000000E+00  0.000000E+00  0.000000E+00  0.000000E+00  0.000000E+00  0.000000E+00  1.372150E-02 -6.457149E-07 -2.137312E-09  1.372150E-02                                                                                                                                                                                                                                                                                                                                                                                                                                                                                              
  9.350000E+02  1.250000E+02 -5.425000E+03  2.019210E-10  6.714597E-12 -1.868071E-16  2.018094E-10  1.135752E-12  3.776880E-14 -1.050767E-18  1.135124E-12  0.000000E+00  0.000000E+00  0.000000E+00  0.000000E+00  0.000000E+00  0.000000E+00  0.000000E+00  0.000000E+00  1.372132E-02 -4.660849E-06  1.473550E-09  1.372132E-02                                                                                                                                                                                                                                                                                                                                                                                                                                                                                              
  1.185000E+03  1.250000E+02 -5.425000E+03  2.057584E-10  1.133691E-11 -1.418057E-15  2.054458E-10  1.157338E-12  6.376879E-14 -7.976407E-18  1.155579E-12  0.000000E+00  0.000000E+00  0.000000E+00  0.000000E+00  0.000000E+00  0.000000E+00  0.000000E+00  0.000000E+00  1.371884E-02 -7.785458E-06 -2.814897E-10  1.371884E-02                                                                                                                                                                                                                                                                                                                                                                                                                                                                                              
  1.435000E+03  1.250000E+02 -5.425000E+03  2.082986E-10  5.311518E-12 -1.198018E-15  2.082309E-10  1.171627E-12  2.987668E-14 -6.738717E-18  1.171246E-12  0.000000E+00  0.000000E+00  0.000000E+00  0.000000E+00  0.000000E+00  0.000000E+00  0.000000E+00  0.000000E+00  1.371705E-02 -3.611774E-06 -1.207593E-09  1.371705E-02                                                                                                                                                                                                                                                                                                                                                                                                                                                                                              
  1.250000E+02  1.250000E+02 -5.225000E+03  1.799891E-09 -5.124673E-12 -3.416586E-16 -1.799883E-09  1.008548E-11 -2.879553E-14 -1.919780E-18 -1.008544E-11  0.000000E+00  0.000000E+00  0.000000E+00  0.000000E+00  0.000000E+00  0.000000E+00  0.000000E+00  0.000000E+00  4.708382E-02  7.209155E-06 -2.608423E-09  4.708381E-02                                                                                                                                                                                                                                                                                                                                                                                                                                                                                              
  3.750000E+02  1.250000E+02 -5.225000E+03  1.809584E-09 -1.122355E-11  1.687799E-16 -1.809549E-09  1.013985E-11 -6.306508E-14  9.483735E-19 -1.013965E-11  0.000000E+00  0.000000E+00  0.000000E+00  0.000000E+00  0.000000E+00  0.000000E+00  0.000000E+00  0.000000E+00  4.709289E-02  1.591312E-05 -2.562569E-09  4.709288E-02                                                                                                                                                                                                                                                                                                                                                                                                                                                                                              
  6.250000E+02  1.250000E+02 -5.225000E+03  1.823115E-09 -6.833144E-12  5.487065E-16 -1.823102E-09  1.021574E-11 -3.839537E-14  3.083174E-18 -1.021567E-11  0.000000E+00  0.000000E+00  0.000000E+00  0.000000E+00  0.000000E+00  0.000000E+00  0.000000E+00  0.000000E+00  4.710658E-02  9.755281E-06 -1.235522E-09  4.710658E-02                                                                                                                                                                                                                                                                                                                                                                                                                                                                                              
  7.600000E+02  1.250000E+02 -5.225000E+03  1.824347E-09 -9.785449E-13  1.849385E-15 -1.824347E-09  1.022265E-11 -5.498430E-15  1.039167E-17 -1.022265E-11  0.000000E+00  0.000000E+00  0.000000E+00  0.000000E+00  0.000000E+00  0.000000E+00  0.000000E+00  0.000000E+00  4.710802E-02  1.401225E-06  1.318362E-10  4.710802E-02                                                                                                                                                                                                                                                                                                                                                                                                                                                                                              
  7.800000E+02  1.250000E+02 -5.225000E+03  1.824409E-09  3.259000E-15  1.846850E-15 -1.824409E-09  1.022300E-11  1.831228E-17  1.037742E-17 -1.022300E-11  0.000000E+00  0.000000E+00  0.000000E+00  0.000000E+00  0.000000E+00  0.000000E+00  0.000000E+00  0.000000E+00  4.710809E-02 -5.705258E-09  2.831459E-10  4.710809E-02                                                                                                                                                                                                                                                                                                                                                                                                                                                                                              
  8.000000E+02  1.250000E+02 -5.225000E+03  1.824347E-09  9.815763E-13  1.802781E-15 -1.824347E-09  1.022265E-11  5.515463E-15  1.012980E-17 -1.022265E-11  0.000000E+00  0.000000E+00  0.000000E+00  0.000000E+00  0.000000E+00  0.000000E+00  0.000000E+00  0.000000E+00  4.710802E-02 -1.410274E-06  5.606192E-10  4.710802E-02                                                                                                                                                                                                                                                                                                                                                                                                                                                                                              
  9.350000E+02  1.250000E+02 -5.225000E+03  1.823115E-09  6.829248E-12  2.000315E-15 -1.823102E-09  1.021574E-11  3.837348E-14  1.123974E-17 -1.021567E-11  0.000000E+00  0.000000E+00  0.000000E+00  0.000000E+00  0.000000E+00  0.000000E+00  0.000000E+00  0.000000E+00  4.710658E-02 -9.762672E-06  6.768095E-10  4.710658E-02                                                                                                                                                                                                                                                                                                                                                                                                                                                                                              
  1.185000E+03  1.250000E+02 -5.225000E+03  1.809590E-09  1.122286E-11 -9.568605E-16 -1.809555E-09  1.013988E-11  6.306119E-14 -5.376594E-18 -1.013968E-11  0.000000E+00  0.000000E+00  0.000000E+00  0.000000E+00  0.000000E+00  0.000000E+00  0.000000E+00  0.000000E+00  4.709288E-02 -1.591197E-05 -2.514119E-09  4.709288E-02                                                                                                                                                                                                                                                                                                                                                                                                                                                                                              
  1.435000E+03  1.250000E+02 -5.225000E+03  1.799892E-09  5.127651E-12 -2.662723E-15 -1.799885E-09  1.008549E-11  2.881226E-14 -1.496185E-17 -1.008544E-11  0.000000E+00  0.000000E+00  0.000000E+00  0.000000E+00  0.000000E+00  0.000000E+00  0.000000E+00  0.000000E+00  4.708381E-02 -7.203950E-06 -4.316875E-09  4.708381E-02                                                                                                                                                                                                                                                                                                                                                                                                                                                                                              
  1.250000E+02  1.250000E+02 -4.975000E+03  5.160443E-09 -6.593623E-12 -2.950216E-16 -5.160439E-09  2.884759E-11 -3.691649E-14 -1.651774E-18 -2.884757E-11  0.000000E+00  0.000000E+00  0.000000E+00  0.000000E+00  0.000000E+00  0.000000E+00  0.000000E+00  0.000000E+00  8.473261E-02  1.922437E-05 -4.380883E-10  8.473261E-02                                                                                                                                                                                                                                                                                                                                                                                                                                                                                              
  3.750000E+02  1.250000E+02 -4.975000E+03  5.178368E-09 -1.552928E-11 -3.099134E-15 -5.178345E-09  2.894770E-11 -8.694547E-14 -1.735146E-17 -2.894757E-11  0.000000E+00  0.000000E+00  0.000000E+00  0.000000E+00  0.000000E+00  0.000000E+00  0.000000E+00  0.000000E+00  8.475816E-02  4.533237E-05 -1.630582E-09  8.475815E-02                                                                                                                                                                                                                                                                                                                                                                                                                                                                                              
  6.250000E+02  1.250000E+02 -4.975000E+03  5.207765E-09 -1.042740E-11 -8.546515E-17 -5.207755E-09  2.911186E-11 -5.838088E-14 -4.785014E-19 -2.911180E-11  0.000000E+00  0.000000E+00  0.000000E+00  0.000000E+00  0.000000E+00  0.000000E+00  0.000000E+00  0.000000E+00  8.480707E-02  3.042469E-05 -7.723188E-10  8.480707E-02                                                                                                                                                                                                                                                                                                                                                                                                                                                                                              
  7.600000E+02  1.250000E+02 -4.975000E+03  5.214591E-09 -1.997725E-12  7.872001E-16 -5.214591E-09  2.914994E-11 -1.118484E-14  4.407366E-18 -2.914994E-11  0.000000E+00  0.000000E+00  0.000000E+00  0.000000E+00  0.000000E+00  0.000000E+00  0.000000E+00  0.000000E+00  8.482332E-02  5.768333E-06 -5.161425E-10  8.482332E-02                                                                                                                                                                                                                                                                                                                                                                                                                                                                                              
  7.800000E+02  1.250000E+02 -4.975000E+03  5.214937E-09 -5.858509E-15  1.015373E-15 -5.214937E-09  2.915188E-11 -3.280055E-17  5.684860E-18 -2.915188E-11  0.000000E+00  0.000000E+00  0.000000E+00  0.000000E+00  0.000000E+00  0.000000E+00  0.000000E+00  0.000000E+00  8.482415E-02 -1.054493E-08 -8.454879E-11  8.482415E-02                                                                                                                                                                                                                                                                                                                                                                                                                                                                                              
  8.000000E+02  1.250000E+02 -4.975000E+03  5.214591E-09  1.985952E-12  1.102538E-15 -5.214591E-09  2.914995E-11  1.111893E-14  6.172878E-18 -2.914994E-11  0.000000E+00  0.000000E+00  0.000000E+00  0.000000E+00  0.000000E+00  0.000000E+00  0.000000E+00  0.000000E+00  8.482333E-02 -5.786070E-06 -6.687519E-11  8.482333E-02                                                                                                                                                                                                                                                                                                                                                                                                                                                                                              
  9.350000E+02  1.250000E+02 -4.975000E+03  5.207768E-09  1.041826E-11  1.584945E-15 -5.207757E-09  2.911187E-11  5.832975E-14  8.873776E-18 -2.911181E-11  0.000000E+00  0.000000E+00  0.000000E+00  0.000000E+00  0.000000E+00  0.000000E+00  0.000000E+00  0.000000E+00  8.480707E-02 -3.043281E-05  1.764957E-09  8.480707E-02                                                                                                                                                                                                                                                                                                                                                                                                                                                                                              
  1.185000E+03  1.250000E+02 -4.975000E+03  5.178365E-09  1.552636E-11  9.612973E-16 -5.178342E-09  2.894769E-11  8.692908E-14  5.382121E-18 -2.894756E-11  0.000000E+00  0.000000E+00  0.000000E+00  0.000000E+00  0.000000E+00  0.000000E+00  0.000000E+00  0.000000E+00  8.475817E-02 -4.533321E-05 -2.259259E-09  8.475815E-02                                                                                                                                                                                                                                                                                                                                                                                                                                                                                              
  1.435000E+03  1.250000E+02 -4.975000E+03  5.160443E-09  6.593915E-12  3.325878E-16 -5.160439E-09  2.884759E-11  3.691813E-14  1.862101E-18 -2.884757E-11  0.000000E+00  0.000000E+00  0.000000E+00  0.000000E+00  0.000000E+00  0.000000E+00  0.000000E+00  0.000000E+00  8.473261E-02 -1.922427E-05  5.438055E-10  8.473261E-02                                                                                                                                                                                                                                                                                                                                                                                                                                                                                              
  1.250000E+02  1.250000E+02 -4.725000E+03  7.086320E-09 -6.545938E-12  1.636824E-15 -7.086317E-09  3.943386E-11 -3.644746E-14  9.113781E-18 -3.943385E-11  0.000000E+00  0.000000E+00  0.000000E+00  0.000000E+00  0.000000E+00  0.000000E+00  0.000000E+00  0.000000E+00  1.174229E-01  4.686921E-05  1.227390E-09  1.174229E-01                                                                                                                                                                                                                                                                                                                                                                                                                                                                                              
  3.750000E+02  1.250000E+02 -4.725000E+03  7.110082E-09 -1.762165E-11  9.718511E-16 -7.110060E-09  3.956588E-11 -9.811602E-14  5.411204E-18 -3.956576E-11  0.000000E+00  0.000000E+00  0.000000E+00  0.000000E+00  0.000000E+00  0.000000E+00  0.000000E+00  0.000000E+00  1.174710E-01  1.253378E-04  1.477396E-09  1.174710E-01                                                                                                                                                                                                                                                                                                                                                                                                                                                                                              
  6.250000E+02  1.250000E+02 -4.725000E+03  7.158556E-09 -1.661055E-11 -9.828721E-16 -7.158537E-09  3.983517E-11 -9.248591E-14 -5.472519E-18 -3.983506E-11  0.000000E+00  0.000000E+00  0.000000E+00  0.000000E+00  0.000000E+00  0.000000E+00  0.000000E+00  0.000000E+00  1.176114E-01  1.162358E-04 -3.624176E-10  1.176113E-01                                                                                                                                                                                                                                                                                                                                                                                                                                                                                              
  7.600000E+02  1.250000E+02 -4.725000E+03  7.209970E-09 -7.432805E-12 -5.907244E-17 -7.209966E-09  4.012047E-11 -4.138494E-14 -3.289077E-19 -4.012045E-11  0.000000E+00  0.000000E+00  0.000000E+00  0.000000E+00  0.000000E+00  0.000000E+00  0.000000E+00  0.000000E+00  1.179089E-01  5.070252E-05 -8.502629E-10  1.179089E-01                                                                                                                                                                                                                                                                                                                                                                                                                                                                                              
  7.800000E+02  1.250000E+02 -4.725000E+03  7.212469E-09 -4.972998E-15  2.031534E-17 -7.212469E-09  4.013433E-11 -2.768901E-17  1.131132E-19 -4.013433E-11  0.000000E+00  0.000000E+00  0.000000E+00  0.000000E+00  0.000000E+00  0.000000E+00  0.000000E+00  0.000000E+00  1.179233E-01  3.034653E-09 -9.582694E-10  1.179233E-01                                                                                                                                                                                                                                                                                                                                                                                                                                                                                              
  8.000000E+02  1.250000E+02 -4.725000E+03  7.209969E-09  7.423779E-12  8.320640E-17 -7.209965E-09  4.012046E-11  4.133468E-14  4.632825E-19 -4.012044E-11  0.000000E+00  0.000000E+00  0.000000E+00  0.000000E+00  0.000000E+00  0.000000E+00  0.000000E+00  0.000000E+00  1.179089E-01 -5.070055E-05 -1.228360E-09  1.179089E-01                                                                                                                                                                                                                                                                                                                                                                                                                                                                                              
  9.350000E+02  1.250000E+02 -4.725000E+03  7.158550E-09  1.660860E-11  1.684485E-17 -7.158531E-09  3.983514E-11  9.247503E-14  9.379019E-20 -3.983503E-11  0.000000E+00  0.000000E+00  0.000000E+00  0.000000E+00  0.000000E+00  0.000000E+00  0.000000E+00  0.000000E+00  1.176114E-01 -1.162368E-04 -9.009795E-10  1.176113E-01                                                                                                                                                                                                                                                                                                                                                                                                                                                                                              
  1.185000E+03  1.250000E+02 -4.725000E+03  7.110074E-09  1.762393E-11 -6.078542E-16 -7.110052E-09  3.956584E-11  9.812872E-14 -3.384493E-18 -3.956572E-11  0.000000E+00  0.000000E+00  0.000000E+00  0.000000E+00  0.000000E+00  0.000000E+00  0.000000E+00  0.000000E+00  1.174710E-01 -1.253383E-04 -1.098220E-09  1.174710E-01                                                                                                                                                                                                                                                                                                                                                                                                                                                                                              