Title="TOUGHREACT V3.30-OMP flowvector.tec: Liq & Gas Fluxes (kg/s/m^2), Pore Velocities (m/s), & Heat Fluxes (J/s/m2)"                                                                                                                                                                                                                                                                                                                                                                                                                                                                                                                                                                                                                                                                                                         
Variables= "X(m)"     "Y(m)"      "Z(m)"     "FluxLiq"   "FluxLiq_X"   "FluxLiq_Y"   "FluxLiq_Z"   "PorVelLiq"  "PorVelLiqX"  "PorVelLiqY"  "PorVelLiqZ"     "FluxGas"   "FluxGas_X"   "FluxGas_Y"   "FluxGas_Z"   "PorVelGas"  "PorVelGasX"  "PorVelGasY"  "PorVelGasZ"    "HeatFlux"  "HeatFlux_X"  "HeatFlux_Y"  "HeatFlux_Z"                                                                                                                                                                                                                                                                                                                                                                                                                                                                                                
Zone T= "1.00000000E+09 sec" I=     9 J=    10 K=    23 F=Point
  1.250000E+02  1.250000E+02 -5.425000E+03  2.988101E-09 -5.352532E-12 -9.531042E-15  2.988096E-09  1.680814E-11 -3.011358E-14 -5.362208E-17  1.680811E-11  0.000000E+00  0.000000E+00  0.000000E+00  0.000000E+00  0.000000E+00  0.000000E+00  0.000000E+00  0.000000E+00  1.975930E-02  3.563598E-06 -1.435417E-08  1.975930E-02                                                                                                                                                                                                                                                                                                                                                                                                                                                                                              
  3.750000E+02  1.250000E+02 -5.425000E+03  2.985328E-09 -1.142961E-11 -1.978424E-15  2.985306E-09  1.679252E-11 -6.430343E-14 -1.113069E-17  1.679240E-11  0.000000E+00  0.000000E+00  0.000000E+00  0.000000E+00  0.000000E+00  0.000000E+00  0.000000E+00  0.000000E+00  1.976107E-02  7.685955E-06  2.117297E-09  1.976107E-02                                                                                                                                                                                                                                                                                                                                                                                                                                                                                              
  6.250000E+02  1.250000E+02 -5.425000E+03  2.981668E-09 -6.766887E-12  4.174562E-15  2.981661E-09  1.677192E-11 -3.807076E-14  2.348623E-17  1.677187E-11  0.000000E+00  0.000000E+00  0.000000E+00  0.000000E+00  0.000000E+00  0.000000E+00  0.000000E+00  0.000000E+00  1.976350E-02  4.605114E-06  3.908719E-09  1.976350E-02                                                                                                                                                                                                                                                                                                                                                                                                                                                                                              
  7.600000E+02  1.250000E+02 -5.425000E+03  2.981401E-09 -9.226996E-13  8.180181E-15  2.981401E-09  1.677041E-11 -5.191140E-15  4.602198E-17  1.677041E-11  0.000000E+00  0.000000E+00  0.000000E+00  0.000000E+00  0.000000E+00  0.000000E+00  0.000000E+00  0.000000E+00  1.976367E-02  6.413641E-07  8.492739E-09  1.976367E-02                                                                                                                                                                                                                                                                                                                                                                                                                                                                                              
  7.800000E+02  1.250000E+02 -5.425000E+03  2.981388E-09  1.733093E-15  8.375105E-15  2.981388E-09  1.677034E-11  9.750441E-18  4.711863E-17  1.677034E-11  0.000000E+00  0.000000E+00  0.000000E+00  0.000000E+00  0.000000E+00  0.000000E+00  0.000000E+00  0.000000E+00  1.976368E-02 -3.781787E-09  9.103200E-09  1.976368E-02                                                                                                                                                                                                                                                                                                                                                                                                                                                                                              
  8.000000E+02  1.250000E+02 -5.425000E+03  2.981401E-09  9.283210E-13  8.123526E-15  2.981401E-09  1.677041E-11  5.222766E-15  4.570324E-17  1.677041E-11  0.000000E+00  0.000000E+00  0.000000E+00  0.000000E+00  0.000000E+00  0.000000E+00  0.000000E+00  0.000000E+00  1.976367E-02 -6.434746E-07  8.795060E-09  1.976367E-02                                                                                                                                                                                                                                                                                                                                                                                                                                                                                              
  9.350000E+02  1.250000E+02 -5.425000E+03  2.981665E-09  6.756556E-12  1.181985E-14  2.981658E-09  1.677190E-11  3.801264E-14  6.649891E-17  1.677186E-11  0.000000E+00  0.000000E+00  0.000000E+00  0.000000E+00  0.000000E+00  0.000000E+00  0.000000E+00  0.000000E+00  1.976350E-02 -4.614679E-06  8.437635E-09  1.976350E-02                                                                                                                                                                                                                                                                                                                                                                                                                                                                                              
  1.185000E+03  1.250000E+02 -5.425000E+03  2.985337E-09  1.141331E-11  1.571853E-14  2.985316E-09  1.679258E-11  6.421176E-14  8.843308E-17  1.679245E-11  0.000000E+00  0.000000E+00  0.000000E+00  0.000000E+00  0.000000E+00  0.000000E+00  0.000000E+00  0.000000E+00  1.976107E-02 -7.701586E-06  1.741627E-08  1.976107E-02                                                                                                                                                                                                                                                                                                                                                                                                                                                                                              
  1.435000E+03  1.250000E+02 -5.425000E+03  2.988111E-09  5.350456E-12  8.828761E-15  2.988106E-09  1.680820E-11  3.010190E-14  4.967102E-17  1.680817E-11  0.000000E+00  0.000000E+00  0.000000E+00  0.000000E+00  0.000000E+00  0.000000E+00  0.000000E+00  0.000000E+00  1.975931E-02 -3.567993E-06  1.089496E-08  1.975931E-02                                                                                                                                                                                                                                                                                                                                                                                                                                                                                              
  1.250000E+02  1.250000E+02 -5.225000E+03  4.416565E-09 -5.160937E-12 -4.405203E-15  4.416562E-09  2.482424E-11 -2.899661E-14 -2.475055E-17  2.482423E-11  0.000000E+00  0.000000E+00  0.000000E+00  0.000000E+00  0.000000E+00  0.000000E+00  0.000000E+00  0.000000E+00  5.609388E-02  7.166586E-06 -6.102924E-09  5.609388E-02                                                                                                                                                                                                                                                                                                                                                                                                                                                                                              
  3.750000E+02  1.250000E+02 -5.225000E+03  4.406856E-09 -1.130071E-11  2.849752E-15  4.406841E-09  2.476969E-11 -6.349273E-14  1.601125E-17  2.476961E-11  0.000000E+00  0.000000E+00  0.000000E+00  0.000000E+00  0.000000E+00  0.000000E+00  0.000000E+00  0.000000E+00  5.610271E-02  1.581626E-05  7.296179E-10  5.610271E-02                                                                                                                                                                                                                                                                                                                                                                                                                                                                                              
  6.250000E+02  1.250000E+02 -5.225000E+03  4.393232E-09 -6.876304E-12  5.136369E-15  4.393227E-09  2.469315E-11 -3.863430E-14  2.885850E-17  2.469312E-11  0.000000E+00  0.000000E+00  0.000000E+00  0.000000E+00  0.000000E+00  0.000000E+00  0.000000E+00  0.000000E+00  5.611607E-02  9.696529E-06  2.831083E-09  5.611607E-02                                                                                                                                                                                                                                                                                                                                                                                                                                                                                              
  7.600000E+02  1.250000E+02 -5.225000E+03  4.391982E-09 -9.855528E-13  3.523207E-15  4.391982E-09  2.468612E-11 -5.537293E-15  1.979501E-17  2.468612E-11  0.000000E+00  0.000000E+00  0.000000E+00  0.000000E+00  0.000000E+00  0.000000E+00  0.000000E+00  0.000000E+00  5.611748E-02  1.394634E-06  1.710848E-09  5.611748E-02                                                                                                                                                                                                                                                                                                                                                                                                                                                                                              
  7.800000E+02  1.250000E+02 -5.225000E+03  4.391920E-09 -2.088263E-15  3.397073E-15  4.391920E-09  2.468577E-11 -1.173283E-17  1.908633E-17  2.468577E-11  0.000000E+00  0.000000E+00  0.000000E+00  0.000000E+00  0.000000E+00  0.000000E+00  0.000000E+00  0.000000E+00  5.611755E-02 -2.427513E-09  1.437782E-09  5.611755E-02                                                                                                                                                                                                                                                                                                                                                                                                                                                                                              
  8.000000E+02  1.250000E+02 -5.225000E+03  4.391982E-09  9.829176E-13  3.368040E-15  4.391982E-09  2.468612E-11  5.522488E-15  1.892321E-17  2.468612E-11  0.000000E+00  0.000000E+00  0.000000E+00  0.000000E+00  0.000000E+00  0.000000E+00  0.000000E+00  0.000000E+00  5.611748E-02 -1.400929E-06  1.245896E-09  5.611748E-02                                                                                                                                                                                                                                                                                                                                                                                                                                                                                              
  9.350000E+02  1.250000E+02 -5.225000E+03  4.393232E-09  6.871587E-12  4.653738E-15  4.393226E-09  2.469315E-11  3.860780E-14  2.614686E-17  2.469312E-11  0.000000E+00  0.000000E+00  0.000000E+00  0.000000E+00  0.000000E+00  0.000000E+00  0.000000E+00  0.000000E+00  5.611607E-02 -9.706041E-06  3.737471E-09  5.611607E-02                                                                                                                                                                                                                                                                                                                                                                                                                                                                                              
  1.185000E+03  1.250000E+02 -5.225000E+03  4.406869E-09  1.129461E-11  3.909905E-15  4.406855E-09  2.476977E-11  6.345847E-14  2.196770E-17  2.476969E-11  0.000000E+00  0.000000E+00  0.000000E+00  0.000000E+00  0.000000E+00  0.000000E+00  0.000000E+00  0.000000E+00  5.610273E-02 -1.582009E-05  2.801928E-09  5.610272E-02                                                                                                                                                                                                                                                                                                                                                                                                                                                                                              
  1.435000E+03  1.250000E+02 -5.225000E+03  4.416582E-09  5.159009E-12  2.019530E-15  4.416579E-09  2.482434E-11  2.898577E-14  1.134669E-17  2.482432E-11  0.000000E+00  0.000000E+00  0.000000E+00  0.000000E+00  0.000000E+00  0.000000E+00  0.000000E+00  0.000000E+00  5.609390E-02 -7.164777E-06  5.440963E-10  5.609390E-02                                                                                                                                                                                                                                                                                                                                                                                                                                                                                              
  1.250000E+02  1.250000E+02 -4.975000E+03  1.289640E-09 -6.566686E-12  1.408541E-17  1.289624E-09  7.241480E-12 -3.676280E-14  7.885559E-20  7.241387E-12  0.000000E+00  0.000000E+00  0.000000E+00  0.000000E+00  0.000000E+00  0.000000E+00  0.000000E+00  0.000000E+00  9.012292E-02  1.920576E-05  2.529601E-10  9.012291E-02                                                                                                                                                                                                                                                                                                                                                                                                                                                                                              
  3.750000E+02  1.250000E+02 -4.975000E+03  1.271731E-09 -1.545463E-11  2.637901E-15  1.271637E-09  7.141312E-12 -8.652070E-14  1.476795E-17  7.140788E-12  0.000000E+00  0.000000E+00  0.000000E+00  0.000000E+00  0.000000E+00  0.000000E+00  0.000000E+00  0.000000E+00  9.014808E-02  4.528749E-05  3.139933E-09  9.014807E-02                                                                                                                                                                                                                                                                                                                                                                                                                                                                                              
  6.250000E+02  1.250000E+02 -4.975000E+03  1.242189E-09 -1.035011E-11  1.308716E-15  1.242146E-09  6.976142E-12 -5.794364E-14  7.326649E-18  6.975902E-12  0.000000E+00  0.000000E+00  0.000000E+00  0.000000E+00  0.000000E+00  0.000000E+00  0.000000E+00  0.000000E+00  9.019638E-02  3.040165E-05 -3.947222E-10  9.019638E-02                                                                                                                                                                                                                                                                                                                                                                                                                                                                                              
  7.600000E+02  1.250000E+02 -4.975000E+03  1.235539E-09 -1.955622E-12  8.485950E-16  1.235537E-09  6.939000E-12 -1.094826E-14  4.750731E-18  6.938991E-12  0.000000E+00  0.000000E+00  0.000000E+00  0.000000E+00  0.000000E+00  0.000000E+00  0.000000E+00  0.000000E+00  9.021223E-02  5.777273E-06 -8.163303E-10  9.021223E-02                                                                                                                                                                                                                                                                                                                                                                                                                                                                                              
  7.800000E+02  1.250000E+02 -4.975000E+03  1.235202E-09  4.803698E-16  7.317432E-16  1.235202E-09  6.937119E-12  2.689278E-18  4.096554E-18  6.937119E-12  0.000000E+00  0.000000E+00  0.000000E+00  0.000000E+00  0.000000E+00  0.000000E+00  0.000000E+00  0.000000E+00  9.021304E-02 -7.082418E-09 -5.255219E-10  9.021304E-02                                                                                                                                                                                                                                                                                                                                                                                                                                                                                              
  8.000000E+02  1.250000E+02 -4.975000E+03  1.235538E-09  1.958155E-12  7.007742E-16  1.235537E-09  6.938999E-12  1.096244E-14  3.923179E-18  6.938990E-12  0.000000E+00  0.000000E+00  0.000000E+00  0.000000E+00  0.000000E+00  0.000000E+00  0.000000E+00  0.000000E+00  9.021223E-02 -5.787946E-06 -4.189851E-10  9.021223E-02                                                                                                                                                                                                                                                                                                                                                                                                                                                                                              
  9.350000E+02  1.250000E+02 -4.975000E+03  1.242186E-09  1.034987E-11  1.755368E-16  1.242143E-09  6.976126E-12  5.794232E-14  9.827166E-19  6.975885E-12  0.000000E+00  0.000000E+00  0.000000E+00  0.000000E+00  0.000000E+00  0.000000E+00  0.000000E+00  0.000000E+00  9.019639E-02 -3.040323E-05  2.112502E-09  9.019638E-02                                                                                                                                                                                                                                                                                                                                                                                                                                                                                              
  1.185000E+03  1.250000E+02 -4.975000E+03  1.271734E-09  1.545407E-11  2.906303E-15  1.271640E-09  7.141329E-12  8.651759E-14  1.627056E-17  7.140805E-12  0.000000E+00  0.000000E+00  0.000000E+00  0.000000E+00  0.000000E+00  0.000000E+00  0.000000E+00  0.000000E+00  9.014809E-02 -4.528476E-05  5.236822E-10  9.014808E-02                                                                                                                                                                                                                                                                                                                                                                                                                                                                                              
  1.435000E+03  1.250000E+02 -4.975000E+03  1.289647E-09  6.568421E-12 -1.998711E-15  1.289630E-09  7.241517E-12  3.677251E-14 -1.118956E-17  7.241423E-12  0.000000E+00  0.000000E+00  0.000000E+00  0.000000E+00  0.000000E+00  0.000000E+00  0.000000E+00  0.000000E+00  9.012292E-02 -1.920504E-05 -4.769991E-10  9.012292E-02                                                                                                                                                                                                                                                                                                                                                                                                                                                                                              
  1.250000E+02  1.250000E+02 -4.725000E+03  1.511359E-09 -6.520201E-12  5.728562E-16 -1.511345E-09  8.395081E-12 -3.630213E-14  3.189465E-18 -8.395002E-12  0.000000E+00  0.000000E+00  0.000000E+00  0.000000E+00  0.000000E+00  0.000000E+00  0.000000E+00  0.000000E+00  1.218241E-01  4.676884E-05  1.898688E-09  1.218241E-01                                                                                                                                                                                                                                                                                                                                                                                                                                                                                              
  3.750000E+02  1.250000E+02 -4.725000E+03  1.535294E-09 -1.751159E-11 -1.440323E-15 -1.535194E-09  8.528228E-12 -9.749778E-14 -8.019175E-18 -8.527671E-12  0.000000E+00  0.000000E+00  0.000000E+00  0.000000E+00  0.000000E+00  0.000000E+00  0.000000E+00  0.000000E+00  1.218718E-01  1.250573E-04 -1.578466E-10  1.218717E-01                                                                                                                                                                                                                                                                                                                                                                                                                                                                                              
  6.250000E+02  1.250000E+02 -4.725000E+03  1.583867E-09 -1.617952E-11 -2.150972E-15 -1.583785E-09  8.798342E-12 -9.008091E-14 -1.197570E-17 -8.797881E-12  0.000000E+00  0.000000E+00  0.000000E+00  0.000000E+00  0.000000E+00  0.000000E+00  0.000000E+00  0.000000E+00  1.220104E-01  1.153218E-04 -1.441323E-09  1.220103E-01                                                                                                                                                                                                                                                                                                                                                                                                                                                                                              
  7.600000E+02  1.250000E+02 -4.725000E+03  1.628762E-09 -6.968404E-12 -6.737356E-16 -1.628747E-09  9.047655E-12 -3.879705E-14 -3.751064E-18 -9.047572E-12  0.000000E+00  0.000000E+00  0.000000E+00  0.000000E+00  0.000000E+00  0.000000E+00  0.000000E+00  0.000000E+00  1.222627E-01  4.972975E-05 -1.131731E-09  1.222626E-01                                                                                                                                                                                                                                                                                                                                                                                                                                                                                              
  7.800000E+02  1.250000E+02 -4.725000E+03  1.631007E-09 -6.236877E-15 -4.483897E-16 -1.631007E-09  9.060123E-12 -3.472419E-17 -2.496437E-18 -9.060123E-12  0.000000E+00  0.000000E+00  0.000000E+00  0.000000E+00  0.000000E+00  0.000000E+00  0.000000E+00  0.000000E+00  1.222753E-01 -3.072325E-09 -7.866751E-10  1.222753E-01                                                                                                                                                                                                                                                                                                                                                                                                                                                                                              
  8.000000E+02  1.250000E+02 -4.725000E+03  1.628761E-09  6.954749E-12 -1.316375E-16 -1.628746E-09  9.047652E-12  3.872102E-14 -7.328997E-19 -9.047569E-12  0.000000E+00  0.000000E+00  0.000000E+00  0.000000E+00  0.000000E+00  0.000000E+00  0.000000E+00  0.000000E+00  1.222627E-01 -4.973577E-05 -2.948935E-10  1.222626E-01                                                                                                                                                                                                                                                                                                                                                                                                                                                                                              
  9.350000E+02  1.250000E+02 -4.725000E+03  1.583864E-09  1.617476E-11  2.755295E-15 -1.583782E-09  8.798326E-12  9.005444E-14  1.534031E-17 -8.797865E-12  0.000000E+00  0.000000E+00  0.000000E+00  0.000000E+00  0.000000E+00  0.000000E+00  0.000000E+00  0.000000E+00  1.220104E-01 -1.153239E-04  1.926201E-09  1.220104E-01                                                                                                                                                                                                                                                                                                                                                                                                                                                                                              
  1.185000E+03  1.250000E+02 -4.725000E+03  1.535291E-09  1.751586E-11  1.917207E-15 -1.535192E-09  8.528213E-12  9.752156E-14  1.067429E-17 -8.527655E-12  0.000000E+00  0.000000E+00  0.000000E+00  0.000000E+00  0.000000E+00  0.000000E+00  0.000000E+00  0.000000E+00  1.218718E-01 -1.250560E-04  6.645360E-10  1.218717E-01                                                                                                                                                                                                                                                                                                                                                                                                                                                                                              