Title="TREACTMECH V1.0-OMP-MPI stress-strain.tec: Total Stresses (Pa), Strains"                                                                                                                                                                                                                                                                                                                                                                                                                                                                                                                                                                                                                                                                                                                                                 
Variables= "X(m)"     "Y(m)"      "Z(m)"    "Sigma_xx"    "Sigma_yy"    "Sigma_zz"    "Sigma_yz"    "Sigma_xz"    "Sigma_xy"   "Strain_xx"   "Strain_yy"   "Strain_zz"   "Strain_yz"   "Strain_xz"   "Strain_xy"  "Vol_Strain"   "E_fail_xx"   "E_fail_yy"   "E_fail_zz"  "E_fail_yz2"  "E_fail_xz2"  "E_fail_xy2"  "E_fail_vol"                                                                                                                                                                                                                                                                                                                                                                                                                                                                                                
Zone T= "1.00000000E+07 sec" I=     9 J=    10 K=    23 F=Point
  1.250000E+02  1.250000E+02 -5.425000E+03 -1.249801E+08 -1.255072E+08 -1.267126E+08 -7.027060E-01  6.499606E+03 -3.051710E-01  4.568271E-05  1.792096E-09 -1.044709E-04 -1.635417E-10  1.512662E-06 -5.289630E-11 -5.878644E-05  0.000000E+00  0.000000E+00  0.000000E+00  0.000000E+00  0.000000E+00  0.000000E+00  0.000000E+00                                                                                                                                                                                                                                                                                                                                                                                                                                                                                              
  3.750000E+02  1.250000E+02 -5.425000E+03 -1.250219E+08 -1.251630E+08 -1.263131E+08 -7.116154E-01  1.810665E+04 -4.067485E-01  1.222844E-05  1.705066E-09 -9.967123E-05 -1.656152E-10  4.213984E-06 -7.050308E-11 -8.744108E-05  0.000000E+00  0.000000E+00  0.000000E+00  0.000000E+00  0.000000E+00  0.000000E+00  0.000000E+00                                                                                                                                                                                                                                                                                                                                                                                                                                                                                              
  6.250000E+02  1.250000E+02 -5.425000E+03 -1.250881E+08 -1.245736E+08 -1.256479E+08 -6.386606E-01  1.652845E+04  4.562751E-01 -4.459095E-05  1.692533E-09 -9.310755E-05 -1.486363E-10  3.846688E-06  7.908769E-11 -1.376968E-04  0.000000E+00  0.000000E+00  0.000000E+00  0.000000E+00  0.000000E+00  0.000000E+00  0.000000E+00                                                                                                                                                                                                                                                                                                                                                                                                                                                                                              
  7.600000E+02  1.250000E+02 -5.425000E+03 -1.251315E+08 -1.239415E+08 -1.249783E+08 -6.275924E-01  1.049785E+04  9.863070E-01 -1.031383E-04  1.738636E-09 -8.986118E-05 -1.460604E-10  2.443178E-06  1.709599E-10 -1.929978E-04  0.000000E+00  0.000000E+00  0.000000E+00  0.000000E+00  0.000000E+00  0.000000E+00  0.000000E+00                                                                                                                                                                                                                                                                                                                                                                                                                                                                                              
  7.800000E+02  1.250000E+02 -5.425000E+03 -1.251428E+08 -1.236808E+08 -1.247153E+08 -6.683868E-01  2.395730E-01  1.091959E+00 -1.267059E-04  1.753244E-09 -8.966113E-05 -1.555545E-10  5.575615E-11  1.892729E-10 -2.163653E-04  0.000000E+00  0.000000E+00  0.000000E+00  0.000000E+00  0.000000E+00  0.000000E+00  0.000000E+00                                                                                                                                                                                                                                                                                                                                                                                                                                                                                              
  8.000000E+02  1.250000E+02 -5.425000E+03 -1.251315E+08 -1.239415E+08 -1.249783E+08 -6.967741E-01 -1.049739E+04  1.148977E+00 -1.031384E-04  1.769104E-09 -8.986117E-05 -1.621612E-10 -2.443071E-06  1.991560E-10 -1.929978E-04  0.000000E+00  0.000000E+00  0.000000E+00  0.000000E+00  0.000000E+00  0.000000E+00  0.000000E+00                                                                                                                                                                                                                                                                                                                                                                                                                                                                                              
  9.350000E+02  1.250000E+02 -5.425000E+03 -1.250881E+08 -1.245736E+08 -1.256479E+08 -6.613308E-01 -1.652796E+04  1.492162E+00 -4.459127E-05  1.922173E-09 -9.310748E-05 -1.539124E-10 -3.846575E-06  2.586415E-10 -1.376968E-04  0.000000E+00  0.000000E+00  0.000000E+00  0.000000E+00  0.000000E+00  0.000000E+00  0.000000E+00                                                                                                                                                                                                                                                                                                                                                                                                                                                                                              
  1.185000E+03  1.250000E+02 -5.425000E+03 -1.250219E+08 -1.251630E+08 -1.263131E+08 -5.390104E-01 -1.810634E+04  1.302613E+00  1.222777E-05  2.188873E-09 -9.967107E-05 -1.254446E-10 -4.213913E-06  2.257862E-10 -8.744110E-05  0.000000E+00  0.000000E+00  0.000000E+00  0.000000E+00  0.000000E+00  0.000000E+00  0.000000E+00                                                                                                                                                                                                                                                                                                                                                                                                                                                                                              
  1.435000E+03  1.250000E+02 -5.425000E+03 -1.249801E+08 -1.255072E+08 -1.267126E+08 -4.435570E-01 -6.499519E+03  4.903003E-01  4.568191E-05  2.354857E-09 -1.044707E-04 -1.032296E-10 -1.512642E-06  8.498539E-11 -5.878646E-05  0.000000E+00  0.000000E+00  0.000000E+00  0.000000E+00  0.000000E+00  0.000000E+00  0.000000E+00                                                                                                                                                                                                                                                                                                                                                                                                                                                                                              
  1.250000E+02  1.250000E+02 -5.225000E+03 -1.211202E+08 -1.216724E+08 -1.227723E+08 -2.348879E+00  1.712254E+04 -4.007550E-01  4.786325E-05  1.340426E-09 -9.532432E-05 -5.466579E-10  3.984950E-06 -6.946420E-11 -4.745973E-05  0.000000E+00  0.000000E+00  0.000000E+00  0.000000E+00  0.000000E+00  0.000000E+00  0.000000E+00                                                                                                                                                                                                                                                                                                                                                                                                                                                                                              
  3.750000E+02  1.250000E+02 -5.225000E+03 -1.211382E+08 -1.212959E+08 -1.223660E+08 -2.496640E+00  4.570028E+04 -5.166108E-01  1.366803E-05  1.246705E-09 -9.273624E-05 -5.810464E-10  1.063589E-05 -8.954587E-11 -7.906696E-05  0.000000E+00  0.000000E+00  0.000000E+00  0.000000E+00  0.000000E+00  0.000000E+00  0.000000E+00                                                                                                                                                                                                                                                                                                                                                                                                                                                                                              
  6.250000E+02  1.250000E+02 -5.225000E+03 -1.211669E+08 -1.206249E+08 -1.216563E+08 -2.598223E+00  3.767821E+04  5.377556E-01 -4.697641E-05  1.238653E-09 -8.938987E-05 -6.046880E-10  8.768901E-06  9.321097E-11 -1.363650E-04  0.000000E+00  0.000000E+00  0.000000E+00  0.000000E+00  0.000000E+00  0.000000E+00  0.000000E+00                                                                                                                                                                                                                                                                                                                                                                                                                                                                                              
  7.600000E+02  1.250000E+02 -5.225000E+03 -1.211795E+08 -1.198850E+08 -1.209007E+08 -2.554122E+00  1.218820E+04  1.314826E+00 -1.121899E-04  1.293223E-09 -8.802751E-05 -5.944242E-10  2.836576E-06  2.279031E-10 -2.002161E-04  0.000000E+00  0.000000E+00  0.000000E+00  0.000000E+00  0.000000E+00  0.000000E+00  0.000000E+00                                                                                                                                                                                                                                                                                                                                                                                                                                                                                              
  7.800000E+02  1.250000E+02 -5.225000E+03 -1.211822E+08 -1.195730E+08 -1.205899E+08 -2.489123E+00  8.299169E-01  1.319847E+00 -1.394677E-04  1.311065E-09 -8.813500E-05 -5.792970E-10  1.931477E-10  2.287734E-10 -2.276014E-04  0.000000E+00  0.000000E+00  0.000000E+00  0.000000E+00  0.000000E+00  0.000000E+00  0.000000E+00                                                                                                                                                                                                                                                                                                                                                                                                                                                                                              
  8.000000E+02  1.250000E+02 -5.225000E+03 -1.211795E+08 -1.198850E+08 -1.209007E+08 -2.442207E+00 -1.218648E+04  1.401021E+00 -1.121899E-04  1.328777E-09 -8.802750E-05 -5.683781E-10 -2.836176E-06  2.428437E-10 -2.002161E-04  0.000000E+00  0.000000E+00  0.000000E+00  0.000000E+00  0.000000E+00  0.000000E+00  0.000000E+00                                                                                                                                                                                                                                                                                                                                                                                                                                                                                              
  9.350000E+02  1.250000E+02 -5.225000E+03 -1.211669E+08 -1.206249E+08 -1.216563E+08 -2.223283E+00 -3.767676E+04  1.899169E+00 -4.697675E-05  1.510614E-09 -8.938981E-05 -5.174276E-10 -8.768563E-06  3.291893E-10 -1.363651E-04  0.000000E+00  0.000000E+00  0.000000E+00  0.000000E+00  0.000000E+00  0.000000E+00  0.000000E+00                                                                                                                                                                                                                                                                                                                                                                                                                                                                                              
  1.185000E+03  1.250000E+02 -5.225000E+03 -1.211382E+08 -1.212959E+08 -1.223660E+08 -1.802868E+00 -4.569935E+04  1.755089E+00  1.366731E-05  1.840759E-09 -9.273613E-05 -4.195838E-10 -1.063567E-05  3.042154E-10 -7.906698E-05  0.000000E+00  0.000000E+00  0.000000E+00  0.000000E+00  0.000000E+00  0.000000E+00  0.000000E+00                                                                                                                                                                                                                                                                                                                                                                                                                                                                                              
  1.435000E+03  1.250000E+02 -5.225000E+03 -1.211202E+08 -1.216724E+08 -1.227723E+08 -1.491121E+00 -1.712223E+04  6.731722E-01  4.786238E-05  2.057342E-09 -9.532419E-05 -3.470306E-10 -3.984879E-06  1.166832E-10 -4.745975E-05  0.000000E+00  0.000000E+00  0.000000E+00  0.000000E+00  0.000000E+00  0.000000E+00  0.000000E+00                                                                                                                                                                                                                                                                                                                                                                                                                                                                                              
  1.250000E+02  1.250000E+02 -4.975000E+03 -1.163657E+08 -1.169637E+08 -1.178600E+08 -3.105082E+00  2.423513E+04 -5.149530E-01  5.183436E-05  4.434195E-10 -7.767167E-05 -7.226499E-10  5.640274E-06 -8.925851E-11 -2.583687E-05  0.000000E+00  0.000000E+00  0.000000E+00  0.000000E+00  0.000000E+00  0.000000E+00  0.000000E+00                                                                                                                                                                                                                                                                                                                                                                                                                                                                                              
  3.750000E+02  1.250000E+02 -4.975000E+03 -1.163747E+08 -1.165596E+08 -1.174391E+08 -3.162701E+00  6.333372E+04 -6.683187E-01  1.602491E-05  3.500351E-10 -7.622454E-05 -7.360597E-10  1.473974E-05 -1.158419E-10 -6.019928E-05  0.000000E+00  0.000000E+00  0.000000E+00  0.000000E+00  0.000000E+00  0.000000E+00  0.000000E+00                                                                                                                                                                                                                                                                                                                                                                                                                                                                                              
  6.250000E+02  1.250000E+02 -4.975000E+03 -1.163820E+08 -1.157922E+08 -1.166512E+08 -3.104132E+00  5.262084E+04  6.585590E-01 -5.111570E-05  3.593320E-10 -7.444123E-05 -7.224288E-10  1.224652E-05  1.141502E-10 -1.255566E-04  0.000000E+00  0.000000E+00  0.000000E+00  0.000000E+00  0.000000E+00  0.000000E+00  0.000000E+00                                                                                                                                                                                                                                                                                                                                                                                                                                                                                              
  7.600000E+02  1.250000E+02 -4.975000E+03 -1.164087E+08 -1.149279E+08 -1.157735E+08 -3.067108E+00  2.975335E+04  1.307550E+00 -1.283302E-04  4.255805E-10 -7.328687E-05 -7.138120E-10  6.924538E-06  2.266420E-10 -2.016166E-04  0.000000E+00  0.000000E+00  0.000000E+00  0.000000E+00  0.000000E+00  0.000000E+00  0.000000E+00                                                                                                                                                                                                                                                                                                                                                                                                                                                                                              
  7.800000E+02  1.250000E+02 -4.975000E+03 -1.164194E+08 -1.145513E+08 -1.153926E+08 -3.102485E+00  8.950083E-01  2.101115E+00 -1.619015E-04  4.458459E-10 -7.291051E-05 -7.220454E-10  2.082965E-10  3.641932E-10 -2.348116E-04  0.000000E+00  0.000000E+00  0.000000E+00  0.000000E+00  0.000000E+00  0.000000E+00  0.000000E+00                                                                                                                                                                                                                                                                                                                                                                                                                                                                                              
  8.000000E+02  1.250000E+02 -4.975000E+03 -1.164087E+08 -1.149279E+08 -1.157735E+08 -3.060895E+00 -2.975161E+04  2.269116E+00 -1.283303E-04  4.766001E-10 -7.328688E-05 -7.123661E-10 -6.924132E-06  3.933134E-10 -2.016167E-04  0.000000E+00  0.000000E+00  0.000000E+00  0.000000E+00  0.000000E+00  0.000000E+00  0.000000E+00                                                                                                                                                                                                                                                                                                                                                                                                                                                                                              
  9.350000E+02  1.250000E+02 -4.975000E+03 -1.163820E+08 -1.157922E+08 -1.166512E+08 -2.844914E+00 -5.261927E+04  2.575704E+00 -5.111610E-05  7.116928E-10 -7.444126E-05 -6.621005E-10 -1.224615E-05  4.464554E-10 -1.255566E-04  0.000000E+00  0.000000E+00  0.000000E+00  0.000000E+00  0.000000E+00  0.000000E+00  0.000000E+00                                                                                                                                                                                                                                                                                                                                                                                                                                                                                              
  1.185000E+03  1.250000E+02 -4.975000E+03 -1.163747E+08 -1.165595E+08 -1.174391E+08 -2.433603E+00 -6.333292E+04  2.507386E+00  1.602409E-05  1.145015E-09 -7.622458E-05 -5.663758E-10 -1.473956E-05  4.346136E-10 -6.019934E-05  0.000000E+00  0.000000E+00  0.000000E+00  0.000000E+00  0.000000E+00  0.000000E+00  0.000000E+00                                                                                                                                                                                                                                                                                                                                                                                                                                                                                              
  1.435000E+03  1.250000E+02 -4.975000E+03 -1.163657E+08 -1.169637E+08 -1.178600E+08 -2.109996E+00 -2.423487E+04  1.034546E+00  5.183339E-05  1.447565E-09 -7.767174E-05 -4.910622E-10 -5.640215E-06  1.793213E-10 -2.583690E-05  0.000000E+00  0.000000E+00  0.000000E+00  0.000000E+00  0.000000E+00  0.000000E+00  0.000000E+00                                                                                                                                                                                                                                                                                                                                                                                                                                                                                              
  1.250000E+02  1.250000E+02 -4.725000E+03 -1.119893E+08 -1.126106E+08 -1.129508E+08 -1.822967E+00  1.098984E+04 -6.253651E-01  5.384768E-05 -3.600694E-10 -2.948726E-05 -4.242616E-10  2.557679E-06 -1.083966E-10  2.436006E-05  0.000000E+00  0.000000E+00  0.000000E+00  0.000000E+00  0.000000E+00  0.000000E+00  0.000000E+00                                                                                                                                                                                                                                                                                                                                                                                                                                                                                              
  3.750000E+02  1.250000E+02 -4.725000E+03 -1.119205E+08 -1.121556E+08 -1.125155E+08 -1.996356E+00  5.135861E+04 -8.302520E-01  2.037136E-05 -4.577543E-10 -3.119621E-05 -4.646146E-10  1.195276E-05 -1.439103E-10 -1.082531E-05  0.000000E+00  0.000000E+00  0.000000E+00  0.000000E+00  0.000000E+00  0.000000E+00  0.000000E+00                                                                                                                                                                                                                                                                                                                                                                                                                                                                                              
  6.250000E+02  1.250000E+02 -4.725000E+03 -1.119107E+08 -1.112678E+08 -1.116442E+08 -2.034079E+00  4.559777E+04  8.369624E-01 -5.571771E-05 -4.090418E-10 -3.262407E-05 -4.733939E-10  1.061203E-05  1.450735E-10 -8.834219E-05  0.000000E+00  0.000000E+00  0.000000E+00  0.000000E+00  0.000000E+00  0.000000E+00  0.000000E+00                                                                                                                                                                                                                                                                                                                                                                                                                                                                                              
  7.600000E+02  1.250000E+02 -4.725000E+03 -1.118262E+08 -1.101946E+08 -1.105926E+08 -1.883057E+00 -1.394114E+04  9.228377E-01 -1.414037E-04 -3.103585E-10 -3.449005E-05 -4.382463E-10 -3.244540E-06  1.599585E-10 -1.758941E-04  0.000000E+00  0.000000E+00  0.000000E+00  0.000000E+00  0.000000E+00  0.000000E+00  0.000000E+00                                                                                                                                                                                                                                                                                                                                                                                                                                                                                              
  7.800000E+02  1.250000E+02 -4.725000E+03 -1.117893E+08 -1.097159E+08 -1.101264E+08 -1.810167E+00  4.196226E-01  2.790193E+00 -1.796972E-04 -2.914231E-10 -3.557244E-05 -4.212826E-10  9.765933E-11  4.836335E-10 -2.152699E-04  0.000000E+00  0.000000E+00  0.000000E+00  0.000000E+00  0.000000E+00  0.000000E+00  0.000000E+00                                                                                                                                                                                                                                                                                                                                                                                                                                                                                              
  8.000000E+02  1.250000E+02 -4.725000E+03 -1.118262E+08 -1.101946E+08 -1.105926E+08 -1.754833E+00  1.394206E+04  3.019297E+00 -1.414040E-04 -2.478190E-10 -3.449002E-05 -4.084046E-10  3.244755E-06  5.233448E-10 -1.758942E-04  0.000000E+00  0.000000E+00  0.000000E+00  0.000000E+00  0.000000E+00  0.000000E+00  0.000000E+00                                                                                                                                                                                                                                                                                                                                                                                                                                                                                              
  9.350000E+02  1.250000E+02 -4.725000E+03 -1.119107E+08 -1.112678E+08 -1.116442E+08 -1.631966E+00 -4.559775E+04  2.968873E+00 -5.571817E-05  2.673851E-11 -3.262409E-05 -3.798095E-10 -1.061203E-05  5.146046E-10 -8.834223E-05  0.000000E+00  0.000000E+00  0.000000E+00  0.000000E+00  0.000000E+00  0.000000E+00  0.000000E+00                                                                                                                                                                                                                                                                                                                                                                                                                                                                                              
  1.185000E+03  1.250000E+02 -4.725000E+03 -1.119205E+08 -1.121556E+08 -1.125155E+08 -1.597979E+00 -5.135921E+04  2.743292E+00  2.037052E-05  4.996751E-10 -3.119639E-05 -3.718998E-10 -1.195290E-05  4.755039E-10 -1.082537E-05  0.000000E+00  0.000000E+00  0.000000E+00  0.000000E+00  0.000000E+00  0.000000E+00  0.000000E+00                                                                                                                                                                                                                                                                                                                                                                                                                                                                                              