Title="TOUGHREACT V3.30-OMP flowdata.tec: P,T,SAT & Other Variables"
Variables= "X(m)"     "Y(m)"      "Z(m)"       "P(Pa)"        "T(C)"      "SatGas"      "SatLiq"          "X1"          "X2"    "Pcap(Pa)"  "DGas_kg/m3"  "DLiq_kg/m3"    "Porosity"  "Perm_X(m2)"  "Perm_Y(m2)"  "Perm_Z(m2)"    "Krel_Gas"    "Krel_Liq"
Zone T= "5.00000000E-02 sec" I=     9 J=    10 K=    23 F=Point
  1.250000E+02  1.250000E+02 -5.425000E+03  5.924662E+07  2.270000E+02  0.000000E+00  1.000000E+00  1.000000E+00  0.000000E+00  0.000000E+00  1.324499E+01  8.751901E+02  2.000000E-01  1.000000E-16  1.000000E-16  1.000000E-16  0.000000E+00  1.000000E+00
  3.750000E+02  1.250000E+02 -5.425000E+03  5.924662E+07  2.270000E+02  0.000000E+00  1.000000E+00  1.000000E+00  0.000000E+00  0.000000E+00  1.324499E+01  8.751901E+02  2.000000E-01  1.000000E-16  1.000000E-16  1.000000E-16  0.000000E+00  1.000000E+00
  6.250000E+02  1.250000E+02 -5.425000E+03  5.924662E+07  2.270000E+02  0.000000E+00  1.000000E+00  1.000000E+00  0.000000E+00  0.000000E+00  1.324499E+01  8.751901E+02  2.000000E-01  1.000000E-16  1.000000E-16  1.000000E-16  0.000000E+00  1.000000E+00
  7.600000E+02  1.250000E+02 -5.425000E+03  5.924662E+07  2.270000E+02  0.000000E+00  1.000000E+00  1.000000E+00  0.000000E+00  0.000000E+00  1.324499E+01  8.751901E+02  2.000000E-01  1.000000E-16  1.000000E-16  1.000000E-16  0.000000E+00  1.000000E+00
  7.800000E+02  1.250000E+02 -5.425000E+03  5.924662E+07  2.270000E+02  0.000000E+00  1.000000E+00  1.000000E+00  0.000000E+00  0.000000E+00  1.324499E+01  8.751901E+02  2.000000E-01  1.000000E-16  1.000000E-16  1.000000E-16  0.000000E+00  1.000000E+00
  8.000000E+02  1.250000E+02 -5.425000E+03  5.924662E+07  2.270000E+02  0.000000E+00  1.000000E+00  1.000000E+00  0.000000E+00  0.000000E+00  1.324499E+01  8.751901E+02  2.000000E-01  1.000000E-16  1.000000E-16  1.000000E-16  0.000000E+00  1.000000E+00
  9.350000E+02  1.250000E+02 -5.425000E+03  5.924662E+07  2.270000E+02  0.000000E+00  1.000000E+00  1.000000E+00  0.000000E+00  0.000000E+00  1.324499E+01  8.751901E+02  2.000000E-01  1.000000E-16  1.000000E-16  1.000000E-16  0.000000E+00  1.000000E+00
  1.185000E+03  1.250000E+02 -5.425000E+03  5.924662E+07  2.270000E+02  0.000000E+00  1.000000E+00  1.000000E+00  0.000000E+00  0.000000E+00  1.324499E+01  8.751901E+02  2.000000E-01  1.000000E-16  1.000000E-16  1.000000E-16  0.000000E+00  1.000000E+00
  1.435000E+03  1.250000E+02 -5.425000E+03  5.924662E+07  2.270000E+02  0.000000E+00  1.000000E+00  1.000000E+00  0.000000E+00  0.000000E+00  1.324499E+01  8.751901E+02  2.000000E-01  1.000000E-16  1.000000E-16  1.000000E-16  0.000000E+00  1.000000E+00
  1.250000E+02  1.250000E+02 -5.225000E+03  5.723763E+07  2.190000E+02  0.000000E+00  1.000000E+00  1.000000E+00  0.000000E+00  0.000000E+00  1.140516E+01  8.823402E+02  2.000000E-01  1.000000E-16  1.000000E-16  1.000000E-16  0.000000E+00  1.000000E+00
  3.750000E+02  1.250000E+02 -5.225000E+03  5.723763E+07  2.190000E+02  0.000000E+00  1.000000E+00  1.000000E+00  0.000000E+00  0.000000E+00  1.140516E+01  8.823402E+02  2.000000E-01  1.000000E-16  1.000000E-16  1.000000E-16  0.000000E+00  1.000000E+00
  6.250000E+02  1.250000E+02 -5.225000E+03  5.723763E+07  2.190000E+02  0.000000E+00  1.000000E+00  1.000000E+00  0.000000E+00  0.000000E+00  1.140516E+01  8.823402E+02  2.000000E-01  1.000000E-16  1.000000E-16  1.000000E-16  0.000000E+00  1.000000E+00
  7.600000E+02  1.250000E+02 -5.225000E+03  5.723763E+07  2.190000E+02  0.000000E+00  1.000000E+00  1.000000E+00  0.000000E+00  0.000000E+00  1.140516E+01  8.823402E+02  2.000000E-01  1.000000E-16  1.000000E-16  1.000000E-16  0.000000E+00  1.000000E+00
  7.800000E+02  1.250000E+02 -5.225000E+03  5.723763E+07  2.190000E+02  0.000000E+00  1.000000E+00  1.000000E+00  0.000000E+00  0.000000E+00  1.140516E+01  8.823402E+02  2.000000E-01  1.000000E-16  1.000000E-16  1.000000E-16  0.000000E+00  1.000000E+00
  8.000000E+02  1.250000E+02 -5.225000E+03  5.723763E+07  2.190000E+02  0.000000E+00  1.000000E+00  1.000000E+00  0.000000E+00  0.000000E+00  1.140516E+01  8.823402E+02  2.000000E-01  1.000000E-16  1.000000E-16  1.000000E-16  0.000000E+00  1.000000E+00
  9.350000E+02  1.250000E+02 -5.225000E+03  5.723763E+07  2.190000E+02  0.000000E+00  1.000000E+00  1.000000E+00  0.000000E+00  0.000000E+00  1.140516E+01  8.823402E+02  2.000000E-01  1.000000E-16  1.000000E-16  1.000000E-16  0.000000E+00  1.000000E+00
  1.185000E+03  1.250000E+02 -5.225000E+03  5.723763E+07  2.190000E+02  0.000000E+00  1.000000E+00  1.000000E+00  0.000000E+00  0.000000E+00  1.140516E+01  8.823402E+02  2.000000E-01  1.000000E-16  1.000000E-16  1.000000E-16  0.000000E+00  1.000000E+00
  1.435000E+03  1.250000E+02 -5.225000E+03  5.723763E+07  2.190000E+02  0.000000E+00  1.000000E+00  1.000000E+00  0.000000E+00  0.000000E+00  1.140516E+01  8.823402E+02  2.000000E-01  1.000000E-16  1.000000E-16  1.000000E-16  0.000000E+00  1.000000E+00
  1.250000E+02  1.250000E+02 -4.975000E+03  5.472638E+07  2.090000E+02  0.000000E+00  1.000000E+00  1.000000E+00  0.000000E+00  0.000000E+00  9.407597E+00  8.910851E+02  2.000000E-01  1.000000E-16  1.000000E-16  1.000000E-16  0.000000E+00  1.000000E+00
  3.750000E+02  1.250000E+02 -4.975000E+03  5.472638E+07  2.090000E+02  0.000000E+00  1.000000E+00  1.000000E+00  0.000000E+00  0.000000E+00  9.407597E+00  8.910851E+02  2.000000E-01  1.000000E-16  1.000000E-16  1.000000E-16  0.000000E+00  1.000000E+00
  6.250000E+02  1.250000E+02 -4.975000E+03  5.472638E+07  2.090000E+02  0.000000E+00  1.000000E+00  1.000000E+00  0.000000E+00  0.000000E+00  9.407597E+00  8.910851E+02  2.000000E-01  1.000000E-16  1.000000E-16  1.000000E-16  0.000000E+00  1.000000E+00
  7.600000E+02  1.250000E+02 -4.975000E+03  5.472638E+07  2.090000E+02  0.000000E+00  1.000000E+00  1.000000E+00  0.000000E+00  0.000000E+00  9.407597E+00  8.910851E+02  2.000000E-01  1.000000E-16  1.000000E-16  1.000000E-16  0.000000E+00  1.000000E+00
  7.800000E+02  1.250000E+02 -4.975000E+03  5.472638E+07  2.090000E+02  0.000000E+00  1.000000E+00  1.000000E+00  0.000000E+00  0.000000E+00  9.407597E+00  8.910851E+02  2.000000E-01  1.000000E-16  1.000000E-16  1.000000E-16  0.000000E+00  1.000000E+00
  8.000000E+02  1.250000E+02 -4.975000E+03  5.472638E+07  2.090000E+02  0.000000E+00  1.000000E+00  1.000000E+00  0.000000E+00  0.000000E+00  9.407597E+00  8.910851E+02  2.000000E-01  1.000000E-16  1.000000E-16  1.000000E-16  0.000000E+00  1.000000E+00
  9.350000E+02  1.250000E+02 -4.975000E+03  5.472638E+07  2.090000E+02  0.000000E+00  1.000000E+00  1.000000E+00  0.000000E+00  0.000000E+00  9.407597E+00  8.910851E+02  2.000000E-01  1.000000E-16  1.000000E-16  1.000000E-16  0.000000E+00  1.000000E+00
  1.185000E+03  1.250000E+02 -4.975000E+03  5.472638E+07  2.090000E+02  0.000000E+00  1.000000E+00  1.000000E+00  0.000000E+00  0.000000E+00  9.407597E+00  8.910851E+02  2.000000E-01  1.000000E-16  1.000000E-16  1.000000E-16  0.000000E+00  1.000000E+00
  1.435000E+03  1.250000E+02 -4.975000E+03  5.472638E+07  2.090000E+02  0.000000E+00  1.000000E+00  1.000000E+00  0.000000E+00  0.000000E+00  9.407597E+00  8.910851E+02  2.000000E-01  1.000000E-16  1.000000E-16  1.000000E-16  0.000000E+00  1.000000E+00
  1.250000E+02  1.250000E+02 -4.725000E+03  5.221512E+07  1.990000E+02  0.000000E+00  1.000000E+00  1.000000E+00  0.000000E+00  0.000000E+00  7.706193E+00  8.996104E+02  2.000000E-01  1.000000E-16  1.000000E-16  1.000000E-16  0.000000E+00  1.000000E+00
  3.750000E+02  1.250000E+02 -4.725000E+03  5.221512E+07  1.990000E+02  0.000000E+00  1.000000E+00  1.000000E+00  0.000000E+00  0.000000E+00  7.706193E+00  8.996104E+02  2.000000E-01  1.000000E-16  1.000000E-16  1.000000E-16  0.000000E+00  1.000000E+00
  6.250000E+02  1.250000E+02 -4.725000E+03  5.221512E+07  1.990000E+02  0.000000E+00  1.000000E+00  1.000000E+00  0.000000E+00  0.000000E+00  7.706193E+00  8.996104E+02  2.000000E-01  1.000000E-16  1.000000E-16  1.000000E-16  0.000000E+00  1.000000E+00
  7.600000E+02  1.250000E+02 -4.725000E+03  5.221512E+07  1.990000E+02  0.000000E+00  1.000000E+00  1.000000E+00  0.000000E+00  0.000000E+00  7.706193E+00  8.996104E+02  2.000000E-01  1.000000E-16  1.000000E-16  1.000000E-16  0.000000E+00  1.000000E+00
  7.800000E+02  1.250000E+02 -4.725000E+03  5.221512E+07  1.990000E+02  0.000000E+00  1.000000E+00  1.000000E+00  0.000000E+00  0.000000E+00  7.706193E+00  8.996104E+02  2.000000E-01  1.000000E-16  1.000000E-16  1.000000E-16  0.000000E+00  1.000000E+00
  8.000000E+02  1.250000E+02 -4.725000E+03  5.221512E+07  1.990000E+02  0.000000E+00  1.000000E+00  1.000000E+00  0.000000E+00  0.000000E+00  7.706193E+00  8.996104E+02  2.000000E-01  1.000000E-16  1.000000E-16  1.000000E-16  0.000000E+00  1.000000E+00
  9.350000E+02  1.250000E+02 -4.725000E+03  5.221512E+07  1.990000E+02  0.000000E+00  1.000000E+00  1.000000E+00  0.000000E+00  0.000000E+00  7.706193E+00  8.996104E+02  2.000000E-01  1.000000E-16  1.000000E-16  1.000000E-16  0.000000E+00  1.000000E+00
  1.185000E+03  1.250000E+02 -4.725000E+03  5.221512E+07  1.990000E+02  0.000000E+00  1.000000E+00  1.000000E+00  0.000000E+00  0.000000E+00  7.706193E+00  8.996104E+02  2.000000E-01  1.000000E-16  1.000000E-16  1.000000E-16  0.000000E+00  1.000000E+00
  1.435000E+03  1.250000E+02 -4.725000E+03  5.221512E+07  1.990000E+02  0.000000E+00  1.000000E+00  1.000000E+00  0.000000E+00  0.000000E+00  7.706193E+00  8.996104E+02  2.000000E-01  1.000000E-16  1.000000E-16  1.000000E-16  0.000000E+00  1.000000E+00
  1.250000E+02  1.250000E+02 -4.550000E+03  5.045725E+07  1.920000E+02  0.000000E+00  1.000000E+00  1.000000E+00  0.000000E+00  0.000000E+00  6.671320E+00  9.054444E+02  2.000000E-01  1.000000E-09  1.000000E-09  1.000000E-09  0.000000E+00  1.000000E+00
  3.750000E+02  1.250000E+02 -4.550000E+03  5.045725E+07  1.920000E+02  0.000000E+00  1.000000E+00  1.000000E+00  0.000000E+00  0.000000E+00  6.671320E+00  9.054444E+02  2.000000E-01  1.000000E-09  1.000000E-09  1.000000E-09  0.000000E+00  1.000000E+00
  6.250000E+02  1.250000E+02 -4.550000E+03  5.045725E+07  1.920000E+02  0.000000E+00  1.000000E+00  1.000000E+00  0.000000E+00  0.000000E+00  6.671320E+00  9.054444E+02  2.000000E-01  1.000000E-09  1.000000E-09  1.000000E-09  0.000000E+00  1.000000E+00
  7.600000E+02  1.250000E+02 -4.550000E+03  5.045725E+07  1.920000E+02  0.000000E+00  1.000000E+00  1.000000E+00  0.000000E+00  0.000000E+00  6.671320E+00  9.054444E+02  2.000000E-01  1.000000E-09  1.000000E-09  1.000000E-09  0.000000E+00  1.000000E+00
  7.800000E+02  1.250000E+02 -4.550000E+03  5.045725E+07  1.920000E+02  0.000000E+00  1.000000E+00  1.000000E+00  0.000000E+00  0.000000E+00  6.671320E+00  9.054444E+02  2.000000E-01  1.000000E-09  1.000000E-09  1.000000E-09  0.000000E+00  1.000000E+00
  8.000000E+02  1.250000E+02 -4.550000E+03  5.045725E+07  1.920000E+02  0.000000E+00  1.000000E+00  1.000000E+00  0.000000E+00  0.000000E+00  6.671320E+00  9.054444E+02  2.000000E-01  1.000000E-09  1.000000E-09  1.000000E-09  0.000000E+00  1.000000E+00
  9.350000E+02  1.250000E+02 -4.550000E+03  5.045725E+07  1.920000E+02  0.000000E+00  1.000000E+00  1.000000E+00  0.000000E+00  0.000000E+00  6.671320E+00  9.054444E+02  2.000000E-01  1.000000E-09  1.000000E-09  1.000000E-09  0.000000E+00  1.000000E+00
  1.185000E+03  1.250000E+02 -4.550000E+03  5.045725E+07  1.920000E+02  0.000000E+00  1.000000E+00  1.000000E+00  0.000000E+00  0.000000E+00  6.671320E+00  9.054444E+02  2.000000E-01  1.000000E-09  1.000000E-09  1.000000E-09  0.000000E+00  1.000000E+00
  1.435000E+03  1.250000E+02 -4.550000E+03  5.045725E+07  1.920000E+02  0.000000E+00  1.000000E+00  1.000000E+00  0.000000E+00  0.000000E+00  6.671320E+00  9.054444E+02  2.000000E-01  1.000000E-09  1.000000E-09  1.000000E-09  0.000000E+00  1.000000E+00
  1.250000E+02  1.250000E+02 -4.375000E+03  4.869938E+07  1.850000E+02  0.000000E+00  1.000000E+00  1.000000E+00  0.000000E+00  0.000000E+00  5.751859E+00  9.111663E+02  1.000000E-01  1.000000E-16  1.000000E-16  1.000000E-16  0.000000E+00  1.000000E+00
  3.750000E+02  1.250000E+02 -4.375000E+03  4.869938E+07  1.850000E+02  0.000000E+00  1.000000E+00  1.000000E+00  0.000000E+00  0.000000E+00  5.751859E+00  9.111663E+02  1.000000E-01  1.000000E-16  1.000000E-16  1.000000E-16  0.000000E+00  1.000000E+00
  6.250000E+02  1.250000E+02 -4.375000E+03  4.869938E+07  1.850000E+02  0.000000E+00  1.000000E+00  1.000000E+00  0.000000E+00  0.000000E+00  5.751859E+00  9.111663E+02  1.000000E-01  1.000000E-16  1.000000E-16  1.000000E-16  0.000000E+00  1.000000E+00
  7.600000E+02  1.250000E+02 -4.375000E+03  4.869938E+07  1.850000E+02  0.000000E+00  1.000000E+00  1.000000E+00  0.000000E+00  0.000000E+00  5.751859E+00  9.111663E+02  3.000000E-01  1.000000E-14  1.000000E-14  1.000000E-14  0.000000E+00  1.000000E+00
  7.800000E+02  1.250000E+02 -4.375000E+03  4.869938E+07  1.850000E+02  0.000000E+00  1.000000E+00  1.000000E+00  0.000000E+00  0.000000E+00  5.751859E+00  9.111663E+02  3.000000E-01  1.000000E-14  1.000000E-14  1.000000E-14  0.000000E+00  1.000000E+00
  8.000000E+02  1.250000E+02 -4.375000E+03  4.869938E+07  1.850000E+02  0.000000E+00  1.000000E+00  1.000000E+00  0.000000E+00  0.000000E+00  5.751859E+00  9.111663E+02  3.000000E-01  1.000000E-14  1.000000E-14  1.000000E-14  0.000000E+00  1.000000E+00
  9.350000E+02  1.250000E+02 -4.375000E+03  4.869938E+07  1.850000E+02  0.000000E+00  1.000000E+00  1.000000E+00  0.000000E+00  0.000000E+00  5.751859E+00  9.111663E+02  1.000000E-01  1.000000E-16  1.000000E-16  1.000000E-16  0.000000E+00  1.000000E+00
  1.185000E+03  1.250000E+02 -4.375000E+03  4.869938E+07  1.850000E+02  0.000000E+00  1.000000E+00  1.000000E+00  0.000000E+00  0.000000E+00  5.751859E+00  9.111663E+02  1.000000E-01  1.000000E-16  1.000000E-16  1.000000E-16  0.000000E+00  1.000000E+00
  1.435000E+03  1.250000E+02 -4.375000E+03  4.869938E+07  1.850000E+02  0.000000E+00  1.000000E+00  1.000000E+00  0.000000E+00  0.000000E+00  5.751859E+00  9.111663E+02  1.000000E-01  1.000000E-16  1.000000E-16  1.000000E-16  0.000000E+00  1.000000E+00
  1.250000E+02  1.250000E+02 -4.125000E+03  4.618813E+07  1.750000E+02  0.000000E+00  1.000000E+00  1.000000E+00  0.000000E+00  0.000000E+00  4.618039E+00  9.191418E+02  1.000000E-01  1.000000E-16  1.000000E-16  1.000000E-16  0.000000E+00  1.000000E+00
  3.750000E+02  1.250000E+02 -4.125000E+03  4.618813E+07  1.750000E+02  0.000000E+00  1.000000E+00  1.000000E+00  0.000000E+00  0.000000E+00  4.618039E+00  9.191418E+02  1.000000E-01  1.000000E-16  1.000000E-16  1.000000E-16  0.000000E+00  1.000000E+00
  6.250000E+02  1.250000E+02 -4.125000E+03  4.618813E+07  1.750000E+02  0.000000E+00  1.000000E+00  1.000000E+00  0.000000E+00  0.000000E+00  4.618039E+00  9.191418E+02  1.000000E-01  1.000000E-16  1.000000E-16  1.000000E-16  0.000000E+00  1.000000E+00
  7.600000E+02  1.250000E+02 -4.125000E+03  4.618813E+07  1.750000E+02  0.000000E+00  1.000000E+00  1.000000E+00  0.000000E+00  0.000000E+00  4.618039E+00  9.191418E+02  3.000000E-01  1.000000E-14  1.000000E-14  1.000000E-14  0.000000E+00  1.000000E+00
  7.800000E+02  1.250000E+02 -4.125000E+03  4.618813E+07  1.750000E+02  0.000000E+00  1.000000E+00  1.000000E+00  0.000000E+00  0.000000E+00  4.618039E+00  9.191418E+02  3.000000E-01  1.000000E-14  1.000000E-14  1.000000E-14  0.000000E+00  1.000000E+00
  8.000000E+02  1.250000E+02 -4.125000E+03  4.618813E+07  1.750000E+02  0.000000E+00  1.000000E+00  1.000000E+00  0.000000E+00  0.000000E+00  4.618039E+00  9.191418E+02  3.000000E-01  1.000000E-14  1.000000E-14  1.000000E-14  0.000000E+00  1.000000E+00
  9.350000E+02  1.250000E+02 -4.125000E+03  4.618813E+07  1.750000E+02  0.000000E+00  1.000000E+00  1.000000E+00  0.000000E+00  0.000000E+00  4.618039E+00  9.191418E+02  1.000000E-01  1.000000E-16  1.000000E-16  1.000000E-16  0.000000E+00  1.000000E+00
  1.185000E+03  1.250000E+02 -4.125000E+03  4.618813E+07  1.750000E+02  0.000000E+00  1.000000E+00  1.000000E+00  0.000000E+00  0.000000E+00  4.618039E+00  9.191418E+02  1.000000E-01  1.000000E-16  1.000000E-16  1.000000E-16  0.000000E+00  1.000000E+00
  1.435000E+03  1.250000E+02 -4.125000E+03  4.618813E+07  1.750000E+02  0.000000E+00  1.000000E+00  1.000000E+00  0.000000E+00  0.000000E+00  4.618039E+00  9.191418E+02  1.000000E-01  1.000000E-16  1.000000E-16  1.000000E-16  0.000000E+00  1.000000E+00
  1.250000E+02  1.250000E+02 -3.875000E+03  4.367688E+07  1.650000E+02  0.000000E+00  1.000000E+00  1.000000E+00  0.000000E+00  0.000000E+00  3.671089E+00  9.268783E+02  1.000000E-01  1.000000E-16  1.000000E-16  1.000000E-16  0.000000E+00  1.000000E+00
  3.750000E+02  1.250000E+02 -3.875000E+03  4.367688E+07  1.650000E+02  0.000000E+00  1.000000E+00  1.000000E+00  0.000000E+00  0.000000E+00  3.671089E+00  9.268783E+02  1.000000E-01  1.000000E-16  1.000000E-16  1.000000E-16  0.000000E+00  1.000000E+00
  6.250000E+02  1.250000E+02 -3.875000E+03  4.367688E+07  1.650000E+02  0.000000E+00  1.000000E+00  1.000000E+00  0.000000E+00  0.000000E+00  3.671089E+00  9.268783E+02  1.000000E-01  1.000000E-16  1.000000E-16  1.000000E-16  0.000000E+00  1.000000E+00
  7.600000E+02  1.250000E+02 -3.875000E+03  4.367688E+07  1.650000E+02  0.000000E+00  1.000000E+00  1.000000E+00  0.000000E+00  0.000000E+00  3.671089E+00  9.268783E+02  3.000000E-01  1.000000E-14  1.000000E-14  1.000000E-14  0.000000E+00  1.000000E+00
  7.800000E+02  1.250000E+02 -3.875000E+03  4.367688E+07  1.650000E+02  0.000000E+00  1.000000E+00  1.000000E+00  0.000000E+00  0.000000E+00  3.671089E+00  9.268783E+02  3.000000E-01  1.000000E-14  1.000000E-14  1.000000E-14  0.000000E+00  1.000000E+00
  8.000000E+02  1.250000E+02 -3.875000E+03  4.367688E+07  1.650000E+02  0.000000E+00  1.000000E+00  1.000000E+00  0.000000E+00  0.000000E+00  3.671089E+00  9.268783E+02  3.000000E-01  1.000000E-14  1.000000E-14  1.000000E-14  0.000000E+00  1.000000E+00
  9.350000E+02  1.250000E+02 -3.875000E+03  4.367688E+07  1.650000E+02  0.000000E+00  1.000000E+00  1.000000E+00  0.000000E+00  0.000000E+00  3.671089E+00  9.268783E+02  1.000000E-01  1.000000E-16  1.000000E-16  1.000000E-16  0.000000E+00  1.000000E+00
  1.185000E+03  1.250000E+02 -3.875000E+03  4.367688E+07  1.650000E+02  0.000000E+00  1.000000E+00  1.000000E+00  0.000000E+00  0.000000E+00  3.671089E+00  9.268783E+02  1.000000E-01  1.000000E-16  1.000000E-16  1.000000E-16  0.000000E+00  1.000000E+00
  1.435000E+03  1.250000E+02 -3.875000E+03  4.367688E+07  1.650000E+02  0.000000E+00  1.000000E+00  1.000000E+00  0.000000E+00  0.000000E+00  3.671089E+00  9.268783E+02  1.000000E-01  1.000000E-16  1.000000E-16  1.000000E-16  0.000000E+00  1.000000E+00
  1.250000E+02  1.250000E+02 -3.625000E+03  4.116563E+07  1.550000E+02  0.000000E+00  1.000000E+00  1.000000E+00  0.000000E+00  0.000000E+00  2.886485E+00  9.343689E+02  1.000000E-01  1.000000E-16  1.000000E-16  1.000000E-16  0.000000E+00  1.000000E+00
  3.750000E+02  1.250000E+02 -3.625000E+03  4.116563E+07  1.550000E+02  0.000000E+00  1.000000E+00  1.000000E+00  0.000000E+00  0.000000E+00  2.886485E+00  9.343689E+02  1.000000E-01  1.000000E-16  1.000000E-16  1.000000E-16  0.000000E+00  1.000000E+00
  6.250000E+02  1.250000E+02 -3.625000E+03  4.116563E+07  1.550000E+02  0.000000E+00  1.000000E+00  1.000000E+00  0.000000E+00  0.000000E+00  2.886485E+00  9.343689E+02  1.000000E-01  1.000000E-16  1.000000E-16  1.000000E-16  0.000000E+00  1.000000E+00
  7.600000E+02  1.250000E+02 -3.625000E+03  4.116563E+07  1.550000E+02  0.000000E+00  1.000000E+00  1.000000E+00  0.000000E+00  0.000000E+00  2.886485E+00  9.343689E+02  3.000000E-01  1.000000E-14  1.000000E-14  1.000000E-14  0.000000E+00  1.000000E+00
  7.800000E+02  1.250000E+02 -3.625000E+03  4.116563E+07  1.550000E+02  0.000000E+00  1.000000E+00  1.000000E+00  0.000000E+00  0.000000E+00  2.886485E+00  9.343689E+02  3.000000E-01  1.000000E-14  1.000000E-14  1.000000E-14  0.000000E+00  1.000000E+00
  8.000000E+02  1.250000E+02 -3.625000E+03  4.116563E+07  1.550000E+02  0.000000E+00  1.000000E+00  1.000000E+00  0.000000E+00  0.000000E+00  2.886485E+00  9.343689E+02  3.000000E-01  1.000000E-14  1.000000E-14  1.000000E-14  0.000000E+00  1.000000E+00
  9.350000E+02  1.250000E+02 -3.625000E+03  4.116563E+07  1.550000E+02  0.000000E+00  1.000000E+00  1.000000E+00  0.000000E+00  0.000000E+00  2.886485E+00  9.343689E+02  1.000000E-01  1.000000E-16  1.000000E-16  1.000000E-16  0.000000E+00  1.000000E+00
  1.185000E+03  1.250000E+02 -3.625000E+03  4.116563E+07  1.550000E+02  0.000000E+00  1.000000E+00  1.000000E+00  0.000000E+00  0.000000E+00  2.886485E+00  9.343689E+02  1.000000E-01  1.000000E-16  1.000000E-16  1.000000E-16  0.000000E+00  1.000000E+00
  1.435000E+03  1.250000E+02 -3.625000E+03  4.116563E+07  1.550000E+02  0.000000E+00  1.000000E+00  1.000000E+00  0.000000E+00  0.000000E+00  2.886485E+00  9.343689E+02  1.000000E-01  1.000000E-16  1.000000E-16  1.000000E-16  0.000000E+00  1.000000E+00
  1.250000E+02  1.250000E+02 -3.375000E+03  3.865438E+07  1.450000E+02  0.000000E+00  1.000000E+00  1.000000E+00  0.000000E+00  0.000000E+00  2.242280E+00  9.416056E+02  1.000000E-01  1.000000E-16  1.000000E-16  1.000000E-16  0.000000E+00  1.000000E+00
  3.750000E+02  1.250000E+02 -3.375000E+03  3.865438E+07  1.450000E+02  0.000000E+00  1.000000E+00  1.000000E+00  0.000000E+00  0.000000E+00  2.242280E+00  9.416056E+02  1.000000E-01  1.000000E-16  1.000000E-16  1.000000E-16  0.000000E+00  1.000000E+00
  6.250000E+02  1.250000E+02 -3.375000E+03  3.865438E+07  1.450000E+02  0.000000E+00  1.000000E+00  1.000000E+00  0.000000E+00  0.000000E+00  2.242280E+00  9.416056E+02  1.000000E-01  1.000000E-16  1.000000E-16  1.000000E-16  0.000000E+00  1.000000E+00
  7.600000E+02  1.250000E+02 -3.375000E+03  3.865438E+07  1.450000E+02  0.000000E+00  1.000000E+00  1.000000E+00  0.000000E+00  0.000000E+00  2.242280E+00  9.416056E+02  3.000000E-01  1.000000E-14  1.000000E-14  1.000000E-14  0.000000E+00  1.000000E+00
  7.800000E+02  1.250000E+02 -3.375000E+03  3.865438E+07  1.450000E+02  0.000000E+00  1.000000E+00  1.000000E+00  0.000000E+00  0.000000E+00  2.242280E+00  9.416056E+02  3.000000E-01  1.000000E-14  1.000000E-14  1.000000E-14  0.000000E+00  1.000000E+00
  8.000000E+02  1.250000E+02 -3.375000E+03  3.865438E+07  1.450000E+02  0.000000E+00  1.000000E+00  1.000000E+00  0.000000E+00  0.000000E+00  2.242280E+00  9.416056E+02  3.000000E-01  1.000000E-14  1.000000E-14  1.000000E-14  0.000000E+00  1.000000E+00
  9.350000E+02  1.250000E+02 -3.375000E+03  3.865438E+07  1.450000E+02  0.000000E+00  1.000000E+00  1.000000E+00  0.000000E+00  0.000000E+00  2.242280E+00  9.416056E+02  1.000000E-01  1.000000E-16  1.000000E-16  1.000000E-16  0.000000E+00  1.000000E+00
  1.185000E+03  1.250000E+02 -3.375000E+03  3.865438E+07  1.450000E+02  0.000000E+00  1.000000E+00  1.000000E+00  0.000000E+00  0.000000E+00  2.242280E+00  9.416056E+02  1.000000E-01  1.000000E-16  1.000000E-16  1.000000E-16  0.000000E+00  1.000000E+00
  1.435000E+03  1.250000E+02 -3.375000E+03  3.865438E+07  1.450000E+02  0.000000E+00  1.000000E+00  1.000000E+00  0.000000E+00  0.000000E+00  2.242280E+00  9.416056E+02  1.000000E-01  1.000000E-16  1.000000E-16  1.000000E-16  0.000000E+00  1.000000E+00
  1.250000E+02  1.250000E+02 -3.125000E+03  3.614313E+07  1.350000E+02  0.000000E+00  1.000000E+00  1.000000E+00  0.000000E+00  0.000000E+00  1.718784E+00  9.485787E+02  1.000000E-01  1.000000E-16  1.000000E-16  1.000000E-16  0.000000E+00  1.000000E+00
  3.750000E+02  1.250000E+02 -3.125000E+03  3.614313E+07  1.350000E+02  0.000000E+00  1.000000E+00  1.000000E+00  0.000000E+00  0.000000E+00  1.718784E+00  9.485787E+02  1.000000E-01  1.000000E-16  1.000000E-16  1.000000E-16  0.000000E+00  1.000000E+00
  6.250000E+02  1.250000E+02 -3.125000E+03  3.614313E+07  1.350000E+02  0.000000E+00  1.000000E+00  1.000000E+00  0.000000E+00  0.000000E+00  1.718784E+00  9.485787E+02  1.000000E-01  1.000000E-16  1.000000E-16  1.000000E-16  0.000000E+00  1.000000E+00
  7.600000E+02  1.250000E+02 -3.125000E+03  3.614313E+07  1.350000E+02  0.000000E+00  1.000000E+00  1.000000E+00  0.000000E+00  0.000000E+00  1.718784E+00  9.485787E+02  3.000000E-01  1.000000E-14  1.000000E-14  1.000000E-14  0.000000E+00  1.000000E+00
  7.800000E+02  1.250000E+02 -3.125000E+03  3.614313E+07  1.350000E+02  0.000000E+00  1.000000E+00  1.000000E+00  0.000000E+00  0.000000E+00  1.718784E+00  9.485787E+02  3.000000E-01  1.000000E-14  1.000000E-14  1.000000E-14  0.000000E+00  1.000000E+00
  8.000000E+02  1.250000E+02 -3.125000E+03  3.614313E+07  1.350000E+02  0.000000E+00  1.000000E+00  1.000000E+00  0.000000E+00  0.000000E+00  1.718784E+00  9.485787E+02  3.000000E-01  1.000000E-14  1.000000E-14  1.000000E-14  0.000000E+00  1.000000E+00
  9.350000E+02  1.250000E+02 -3.125000E+03  3.614313E+07  1.350000E+02  0.000000E+00  1.000000E+00  1.000000E+00  0.000000E+00  0.000000E+00  1.718784E+00  9.485787E+02  1.000000E-01  1.000000E-16  1.000000E-16  1.000000E-16  0.000000E+00  1.000000E+00
  1.185000E+03  1.250000E+02 -3.125000E+03  3.614313E+07  1.350000E+02  0.000000E+00  1.000000E+00  1.000000E+00  0.000000E+00  0.000000E+00  1.718784E+00  9.485787E+02  1.000000E-01  1.000000E-16  1.000000E-16  1.000000E-16  0.000000E+00  1.000000E+00
  1.435000E+03  1.250000E+02 -3.125000E+03  3.614313E+07  1.350000E+02  0.000000E+00  1.000000E+00  1.000000E+00  0.000000E+00  0.000000E+00  1.718784E+00  9.485787E+02  1.000000E-01  1.000000E-16  1.000000E-16  1.000000E-16  0.000000E+00  1.000000E+00
  1.250000E+02  1.250000E+02 -2.875000E+03  3.363188E+07  1.250000E+02  0.000000E+00  1.000000E+00  1.000000E+00  0.000000E+00  0.000000E+00  1.298308E+00  9.552762E+02  1.000000E-01  1.000000E-16  1.000000E-16  1.000000E-16  0.000000E+00  1.000000E+00
  3.750000E+02  1.250000E+02 -2.875000E+03  3.363188E+07  1.250000E+02  0.000000E+00  1.000000E+00  1.000000E+00  0.000000E+00  0.000000E+00  1.298308E+00  9.552762E+02  1.000000E-01  1.000000E-16  1.000000E-16  1.000000E-16  0.000000E+00  1.000000E+00
  6.250000E+02  1.250000E+02 -2.875000E+03  3.363188E+07  1.250000E+02  0.000000E+00  1.000000E+00  1.000000E+00  0.000000E+00  0.000000E+00  1.298308E+00  9.552762E+02  1.000000E-01  1.000000E-16  1.000000E-16  1.000000E-16  0.000000E+00  1.000000E+00
  7.600000E+02  1.250000E+02 -2.875000E+03  3.363188E+07  1.250000E+02  0.000000E+00  1.000000E+00  1.000000E+00  0.000000E+00  0.000000E+00  1.298308E+00  9.552762E+02  3.000000E-01  1.000000E-14  1.000000E-14  1.000000E-14  0.000000E+00  1.000000E+00
  7.800000E+02  1.250000E+02 -2.875000E+03  3.363188E+07  1.250000E+02  0.000000E+00  1.000000E+00  1.000000E+00  0.000000E+00  0.000000E+00  1.298308E+00  9.552762E+02  3.000000E-01  1.000000E-14  1.000000E-14  1.000000E-14  0.000000E+00  1.000000E+00
  8.000000E+02  1.250000E+02 -2.875000E+03  3.363188E+07  1.250000E+02  0.000000E+00  1.000000E+00  1.000000E+00  0.000000E+00  0.000000E+00  1.298308E+00  9.552762E+02  3.000000E-01  1.000000E-14  1.000000E-14  1.000000E-14  0.000000E+00  1.000000E+00
  9.350000E+02  1.250000E+02 -2.875000E+03  3.363188E+07  1.250000E+02  0.000000E+00  1.000000E+00  1.000000E+00  0.000000E+00  0.000000E+00  1.298308E+00  9.552762E+02  1.000000E-01  1.000000E-16  1.000000E-16  1.000000E-16  0.000000E+00  1.000000E+00
  1.185000E+03  1.250000E+02 -2.875000E+03  3.363188E+07  1.250000E+02  0.000000E+00  1.000000E+00  1.000000E+00  0.000000E+00  0.000000E+00  1.298308E+00  9.552762E+02  1.000000E-01  1.000000E-16  1.000000E-16  1.000000E-16  0.000000E+00  1.000000E+00
  1.435000E+03  1.250000E+02 -2.875000E+03  3.363188E+07  1.250000E+02  0.000000E+00  1.000000E+00  1.000000E+00  0.000000E+00  0.000000E+00  1.298308E+00  9.552762E+02  1.000000E-01  1.000000E-16  1.000000E-16  1.000000E-16  0.000000E+00  1.000000E+00
  1.250000E+02  1.250000E+02 -2.625000E+03  3.112063E+07  1.150000E+02  0.000000E+00  1.000000E+00  1.000000E+00  0.000000E+00  0.000000E+00  9.649772E-01  9.616835E+02  1.000000E-01  1.000000E-16  1.000000E-16  1.000000E-16  0.000000E+00  1.000000E+00
  3.750000E+02  1.250000E+02 -2.625000E+03  3.112063E+07  1.150000E+02  0.000000E+00  1.000000E+00  1.000000E+00  0.000000E+00  0.000000E+00  9.649772E-01  9.616835E+02  1.000000E-01  1.000000E-16  1.000000E-16  1.000000E-16  0.000000E+00  1.000000E+00
  6.250000E+02  1.250000E+02 -2.625000E+03  3.112063E+07  1.150000E+02  0.000000E+00  1.000000E+00  1.000000E+00  0.000000E+00  0.000000E+00  9.649772E-01  9.616835E+02  1.000000E-01  1.000000E-16  1.000000E-16  1.000000E-16  0.000000E+00  1.000000E+00
  7.600000E+02  1.250000E+02 -2.625000E+03  3.112063E+07  1.150000E+02  0.000000E+00  1.000000E+00  1.000000E+00  0.000000E+00  0.000000E+00  9.649772E-01  9.616835E+02  3.000000E-01  1.000000E-14  1.000000E-14  1.000000E-14  0.000000E+00  1.000000E+00
  7.800000E+02  1.250000E+02 -2.625000E+03  3.112063E+07  1.150000E+02  0.000000E+00  1.000000E+00  1.000000E+00  0.000000E+00  0.000000E+00  9.649772E-01  9.616835E+02  3.000000E-01  1.000000E-14  1.000000E-14  1.000000E-14  0.000000E+00  1.000000E+00
  8.000000E+02  1.250000E+02 -2.625000E+03  3.112063E+07  1.150000E+02  0.000000E+00  1.000000E+00  1.000000E+00  0.000000E+00  0.000000E+00  9.649772E-01  9.616835E+02  3.000000E-01  1.000000E-14  1.000000E-14  1.000000E-14  0.000000E+00  1.000000E+00
  9.350000E+02  1.250000E+02 -2.625000E+03  3.112063E+07  1.150000E+02  0.000000E+00  1.000000E+00  1.000000E+00  0.000000E+00  0.000000E+00  9.649772E-01  9.616835E+02  1.000000E-01  1.000000E-16  1.000000E-16  1.000000E-16  0.000000E+00  1.000000E+00
  1.185000E+03  1.250000E+02 -2.625000E+03  3.112063E+07  1.150000E+02  0.000000E+00  1.000000E+00  1.000000E+00  0.000000E+00  0.000000E+00  9.649772E-01  9.616835E+02  1.000000E-01  1.000000E-16  1.000000E-16  1.000000E-16  0.000000E+00  1.000000E+00
  1.435000E+03  1.250000E+02 -2.625000E+03  3.112063E+07  1.150000E+02  0.000000E+00  1.000000E+00  1.000000E+00  0.000000E+00  0.000000E+00  9.649772E-01  9.616835E+02  1.000000E-01  1.000000E-16  1.000000E-16  1.000000E-16  0.000000E+00  1.000000E+00